  <PP_INFO>

############################################################
#    Opium Parameter File                                  #
############################################################
#-----------------------------------------------------------
#Command line   : /usr/local/bin/opium cl cl.log all ke rpt upf plot wp 
 
#Opium version  : 3.8 
#Compile Host   : vagvlan567.217.wlan.design.upenn.edu 
#Compile OS     : Darwin 14.1.0 i386 
#Compile Date   : Wed Mar 18 18:57:27 EDT 2015 
#-----------------------------------------------------------
#Execution Host : vagvlan567.215.wlan.design.upenn.edu 
#Execution Date : Wed Oct 14 11:15:04 2015
 
#-----------------------------------------------------------
############################################################
[Atom]
Cl                 # chemical symbol (max. 2 characters)
7                 # norb: number of orbitals
100 2.00  -       # reference configuration
200 2.00  -       # reference configuration
210 6.00  -       # reference configuration
300 2.00  -       # reference configuration
310 4.00  -       # reference configuration
400 0.00  -
320 0.00  -

[Pseudo]
4  1.58 1.35 1.05 2.67
opt

[XC]
gga
                                                                                                                 
[Optinfo]
7.07  10    # rc[a.u.]  Qc[sqrt(Ry)]  Nb
7.07  10    # rc[a.u.]  Qc[sqrt(Ry)]  Nb
7.07  10    # rc[a.u.]  Qc[sqrt(Ry)]  Nb
7.07  10    # rc[a.u.]  Qc[sqrt(Ry)]  Nb
[Configs]  
2                 # number of valence configurations
#
300 2.00   -1.4   # test configuration
310 3.50   -0.4   # test configuration
400 0.00   -
320 0.00  -
#
300 2.00   -      # test configuration
310 4.50   -      # test configuration
400 0.00   -
320 0.00   -
#
300 2.00   -      # test configuration
310 5.00   -      # test configuration
400 0.00   -
320 0.00   -

[KBdesign]
0  # local orbital [0..lmax]
0  # number of boxes
au      0.1 1.25 5.79
############################################################
  </PP_INFO>



<PP_HEADER>
   0         Version Number
   Cl        Element
   NC        Norm - Conserving pseudopotential
    F      Nonlinear Core Correction
SLA  PW   PBE  PBE     PBE  Exchange-Correlation functional
 7          Z valence
 0          Total energy
 0.000000   0.000000     Suggested cutoff for wfc and rho
 2           Max angular momentum component
 1149           Number of points in mesh
 3  2     Number of Wavefuncitons, Number of Projectors
 Wavefunctions         nl  l   occ
                       S  0  2.000000
                       P  1  4.000000
                       D  2  0.000000
</PP_HEADER>
<PP_MESH>
  <PP_R>
 3.8891111873282025e-05  3.9399996913619411e-05  3.9915540647211008e-05  4.0437830202174828e-05 
 4.0966953846688775e-05  4.1503001003908151e-05  4.2046062267078304e-05  4.2596229414845299e-05 
 4.3153595426766545e-05  4.3718254499024655e-05  4.4290302060346765e-05  4.4869834788132277e-05 
 4.5456950624791538e-05  4.6051748794298319e-05  4.6654329818959007e-05  4.7264795536400868e-05 
 4.7883249116783167e-05  4.8509795080232974e-05  4.9144539314509334e-05  4.9787589092898610e-05 
 5.0439053092343865e-05  5.1099041411811554e-05  5.1767665590898498e-05  5.2445038628682403e-05 
 5.3131275002818772e-05  5.3826490688888199e-05  5.4530803179996295e-05  5.5244331506630403e-05 
 5.5967196256775982e-05  5.6699519596296294e-05  5.7441425289578729e-05  5.8193038720451253e-05 
 5.8954486913372637e-05  5.9725898554899711e-05  6.0507404015435990e-05  6.1299135371264339e-05 
 6.2101226426868324e-05  6.2913812737545367e-05  6.3737031632316005e-05  6.4571022237132819e-05 
 6.5415925498392980e-05  6.6271884206758663e-05  6.7139043021288729e-05  6.8017548493886794e-05 
 6.8907549094068699e-05  6.9809195234054111e-05  7.0722639294186726e-05  7.1648035648686777e-05 
 7.2585540691740713e-05  7.3535312863932224e-05  7.4497512679018855e-05  7.5472302751059504e-05 
 7.6459847821896463e-05  7.7460314788997176e-05  7.8473872733660248e-05  7.9500692949590742e-05 
 8.0540948971849030e-05  8.1594816606178828e-05  8.2662473958718615e-05  8.3744101466102206e-05 
 8.4839881925952534e-05  8.5950000527775484e-05  8.7074644884256944e-05  8.8214005062969933e-05 
 8.9368273618496420e-05  9.0537645624969560e-05  9.1722318709041689e-05  9.2922493083283719e-05 
 9.4138371580021254e-05  9.5370159685614249e-05  9.6618065575184323e-05  9.7882300147796952e-05 
 9.9163077062103890e-05  1.0046061277245204e-04  1.0177512656546471e-04  1.0310684059710159e-04 
 1.0445597993020365e-04  1.0582277257252924e-04  1.0720744951528813e-04  1.0861024477217908e-04 
 1.1003139541893946e-04  1.1147114163341098e-04  1.1292972673613065e-04  1.1440739723145241e-04 
 1.1590440284920695e-04  1.1742099658690680e-04  1.1895743475250305e-04  1.2051397700770270e-04 
 1.2209088641185157e-04  1.2368842946639216e-04  1.2530687615990301e-04  1.2694650001372735e-04 
 1.2860757812819897e-04  1.3029039122947273e-04  1.3199522371696803e-04  1.3372236371143287e-04 
 1.3547210310363723e-04  1.3724473760370269e-04  1.3904056679107894e-04  1.4085989416517288e-04 
 1.4270302719664093e-04  1.4457027737935219e-04  1.4646196028303180e-04  1.4837839560659304e-04 
 1.5031990723216658e-04  1.5228682327983830e-04  1.5427947616310166e-04  1.5629820264503666e-04 
 1.5834334389522352e-04  1.6041524554740117e-04  1.6251425775788011e-04  1.6464073526471976e-04 
 1.6679503744768009e-04  1.6897752838895735e-04  1.7118857693471538e-04  1.7342855675742060e-04 
 1.7569784641899457e-04  1.7799682943479120e-04  1.8032589433841201e-04  1.8268543474736908e-04 
 1.8507584942960745e-04  1.8749754237089801e-04  1.8995092284311140e-04  1.9243640547338684e-04 
 1.9495441031420455e-04  1.9750536291437569e-04  2.0008969439096126e-04  2.0270784150213173e-04 
 2.0536024672098031e-04  2.0804735831030200e-04  2.1076963039835095e-04  2.1352752305558935e-04 
 2.1632150237244053e-04  2.1915204053805852e-04  2.2201961592013052e-04  2.2492471314572118e-04 
 2.2786782318317604e-04  2.3084944342509632e-04  2.3387007777239948e-04  2.3693023671947974e-04 
 2.4003043744048227e-04  2.4317120387670795e-04  2.4635306682515976e-04  2.4957656402824918e-04 
 2.5284224026467564e-04  2.5615064744149594e-04  2.5950234468739711e-04  2.6289789844719116e-04 
 2.6633788257754523e-04  2.6982287844396478e-04  2.7335347501904618e-04  2.7693026898201325e-04 
 2.8055386481955918e-04  2.8422487492800496e-04  2.8794391971679619e-04  2.9171162771335422e-04 
 2.9552863566929745e-04  2.9939558866805559e-04  3.0331314023388900e-04  3.0728195244233666e-04 
 3.1130269603210772e-04  3.1537605051843885e-04  3.1950270430793304e-04  3.2368335481490268e-04 
 3.2791870857923366e-04  3.3220948138579280e-04  3.3655639838539689e-04  3.4096019421736486e-04 
 3.4542161313367382e-04  3.4994140912473950e-04  3.5452034604684140e-04  3.5915919775121792e-04 
 3.6385874821484804e-04  3.6861979167294583e-04  3.7344313275318675e-04  3.7832958661169379e-04 
 3.8327997907079914e-04  3.8829514675861100e-04  3.9337593725040495e-04  3.9852320921186714e-04 
 4.0373783254420983e-04  4.0902068853118764e-04  4.1437266998803595e-04  4.1979468141235940e-04 
 4.2528763913699338e-04  4.3085247148486728e-04  4.3649011892589267e-04  4.4220153423590565e-04 
 4.4798768265768652e-04  4.5384954206409059e-04  4.5978810312330930e-04  4.6580436946629643e-04 
 4.7189935785638240e-04  4.7807409836111227e-04  4.8432963452632767e-04  4.9066702355252947e-04 
 4.9708733647354662e-04  5.0359165833754383e-04  5.1018108839039685e-04  5.1685674026146823e-04 
 5.2361974215181279e-04  5.3047123702484671e-04  5.3741238279951065e-04  5.4444435254596122e-04 
 5.5156833468382211e-04  5.5878553318303127e-04  5.6609716776731143e-04  5.7350447412031025e-04 
 5.8100870409443157e-04  5.8861112592240234e-04  5.9631302443160475e-04  6.0411570126121892e-04 
 6.1202047508219994e-04  6.2002868182013790e-04  6.2814167488103162e-04  6.3636082538001822e-04 
 6.4468752237309445e-04  6.5312317309187029e-04  6.6166920318139503e-04  6.7032705694109417e-04 
 6.7909819756885943e-04  6.8798410740833352e-04  6.9698628819942811e-04  7.0610626133212387e-04 
 7.1534556810358538e-04  7.2470576997864808e-04  7.3418844885370701e-04  7.4379520732406233e-04 
 7.5352766895475935e-04  7.6338747855497855e-04  7.7337630245600955e-04  7.8349582879286598e-04 
 7.9374776778958422e-04  8.0413385204825558e-04  8.1465583684183927e-04  8.2531550041080900e-04 
 8.3611464426367886e-04  8.4705509348146301e-04  8.5813869702611862e-04  8.6936732805302475e-04 
 8.8074288422755013e-04  8.9226728804576408e-04  9.0394248715933948e-04  9.1577045470471539e-04 
 9.2775318963655865e-04  9.3989271706559354e-04  9.5219108860084738e-04  9.6465038269638159e-04 
 9.7727270500255281e-04  9.9006018872187305e-04  1.0030149949695262e-03  1.0161393131386022e-03 
 1.0294353612701082e-03  1.0429053864278249e-03  1.0565516650780631e-03  1.0703765034743950e-03 
 1.0843822380474143e-03  1.0985712357995975e-03  1.1129458947053367e-03  1.1275086441162006e-03 
 1.1422619451714993e-03  1.1572082912142258e-03  1.1723502082124353e-03  1.1876902551861399e-03 
 1.2032310246397884e-03  1.2189751430004073e-03  1.2349252710614717e-03  1.2510841044325875e-03 
 1.2674543739950538e-03  1.2840388463633890e-03  1.3008403243528963e-03  1.3178616474533449e-03 
 1.3351056923088518e-03  1.3525753732040392e-03  1.3702736425565583e-03  1.3882034914160532e-03 
 1.4063679499696561e-03  1.4247700880540962e-03  1.4434130156745076e-03  1.4622998835300306e-03 
 1.4814338835462853e-03  1.5008182494148160e-03  1.5204562571395895e-03  1.5403512255906528e-03 
 1.5605065170650259e-03  1.5809255378549394e-03  1.6016117388235069e-03  1.6225686159879256e-03 
 1.6437997111103163e-03  1.6653086122962873e-03  1.6870989546013326e-03  1.7091744206451636e-03 
 1.7315387412340840e-03  1.7541956959915028e-03  1.7771491139966997e-03  1.8004028744319494e-03 
 1.8239609072381105e-03  1.8478271937787981e-03  1.8720057675132417e-03  1.8965007146779511e-03 
 1.9213161749772950e-03  1.9464563422831288e-03  1.9719254653435625e-03  1.9977278485010129e-03 
 2.0238678524196461e-03  2.0503498948223385e-03  2.0771784512372874e-03  2.1043580557543813e-03 
 2.1318933017914730e-03  2.1597888428706797e-03  2.1880493934048400e-03  2.2166797294942528e-03 
 2.2456846897338624e-03  2.2750691760309843e-03  2.3048381544337397e-03  2.3349966559703325e-03 
 2.3655497774993017e-03  2.3965026825709061e-03  2.4278606022997730e-03  2.4596288362489739e-03 
 2.4918127533256531e-03  2.5244177926883999e-03  2.5574494646664696e-03  2.5909133516910450e-03 
 2.6248151092386806e-03  2.6591604667870919e-03  2.6939552287834484e-03  2.7292052756253439e-03 
 2.7649165646545953e-03  2.8010951311640392e-03  2.8377470894175279e-03  2.8748786336832404e-03 
 2.9124960392805346e-03  2.9506056636404896e-03  2.9892139473803271e-03  3.0283274153918897e-03 
 3.0679526779443661e-03  3.1080964318014421e-03  3.1487654613530595e-03  3.1899666397620123e-03 
 3.2317069301255144e-03  3.2739933866519819e-03  3.3168331558532153e-03  3.3602334777521718e-03 
 3.4042016871065487e-03  3.4487452146483759e-03  3.4938715883398291e-03  3.5395884346454613e-03 
 3.5859034798211113e-03  3.6328245512196487e-03  3.6803595786138151e-03  3.7285165955363796e-03 
 3.7773037406378207e-03  3.8267292590617769e-03  3.8768015038385005e-03  3.9275289372965386e-03 
 3.9789201324928764e-03  4.0309837746618192e-03  4.0837286626828123e-03  4.1371637105674670e-03 
 4.1912979489660577e-03  4.2461405266937180e-03  4.3017007122766147e-03  4.3579878955183511e-03 
 4.4150115890868660e-03  4.4727814301220876e-03  4.5313071818646519e-03  4.5905987353059008e-03 
 4.6506661108594860e-03  4.7115194600548414e-03  4.7731690672528177e-03  4.8356253513837646e-03 
 4.8988988677083510e-03  4.9630003096014386e-03  5.0279405103592642e-03  5.0937304450303263e-03 
 5.1603812322701687e-03  5.2279041362204718e-03  5.2963105684127139e-03  5.3656120896967488e-03 
 5.4358204121946188e-03  5.5069474012799284e-03  5.5790050775831263e-03  5.6520056190230029e-03 
 5.7259613628648145e-03  5.8008848078052924e-03  5.8767886160849556e-03  5.9536856156280635e-03 
 6.0315888022105593e-03  6.1105113416563940e-03  6.1904665720625765e-03  6.2714680060533528e-03 
 6.3535293330638475e-03  6.4366644216536442e-03  6.5208873218505839e-03  6.6062122675252591e-03 
 6.6926536787965708e-03  6.7802261644687627e-03  6.8689445245003426e-03  6.9588237525053170e-03 
 7.0498790382871436e-03  7.1421257704058286e-03  7.2355795387786630e-03  7.3302561373149305e-03 
 7.4261715665851231e-03  7.5233420365250752e-03  7.6217839691754812e-03  7.7215140014572602e-03 
 7.8225489879832372e-03  7.9249060039066153e-03  8.0286023478066855e-03  8.1336555446123882e-03 
 8.2400833485640167e-03  8.3479037462137490e-03  8.4571349594654097e-03  8.5677954486540180e-03 
 8.6799039156656311e-03  8.7934793070980032e-03  8.9085408174626145e-03  9.0251078924285574e-03 
 9.1432002321089507e-03  9.2628377943902718e-03  9.3840407983052949e-03  9.5068297274501570e-03 
 9.6312253334461320e-03  9.7572486394467070e-03  9.8849209436905460e-03  1.0014263823100942e-02 
 1.0145299136932353e-02  1.0278049030464698e-02  1.0412535938745943e-02  1.0548782590383679e-02 
 1.0686812011386312e-02  1.0826647529054515e-02  1.0968312775923599e-02  1.1111831693757459e-02 
 1.1257228537594807e-02  1.1404527879848291e-02  1.1553754614457352e-02  1.1704933961095308e-02 
 1.1858091469431564e-02  1.2013253023449560e-02  1.2170444845821223e-02  1.2329693502338665e-02 
 1.2491025906403866e-02  1.2654469323577111e-02  1.2820051376184890e-02  1.2987800047988206e-02 
 1.3157743688911854e-02  1.3329911019835630e-02  1.3504331137448236e-02  1.3681033519164686e-02 
 1.3860048028108057e-02  1.4041404918156433e-02  1.4225134839055895e-02  1.4411268841600339e-02 
 1.4599838382879229e-02  1.4790875331593855e-02  1.4984411973443230e-02  1.5180481016580469e-02 
 1.5379115597140525e-02  1.5580349284840278e-02  1.5784216088651909e-02  1.5990750462550499e-02 
 1.6199987311336778e-02  1.6411961996536207e-02  1.6626710342375110e-02  1.6844268641835053e-02 
 1.7064673662786457e-02  1.7287962654202446e-02  1.7514173352454018e-02  1.7743343987687583e-02 
 1.7975513290285954e-02  1.8210720497413829e-02  1.8449005359649048e-02  1.8690408147700462e-02 
 1.8934969659213815e-02  1.9182731225666636e-02  1.9433734719353356e-02  1.9688022560461808e-02 
 1.9945637724242377e-02  2.0206623748270910e-02  2.0471024739806606e-02  2.0738885383246343e-02 
 2.1010250947676407e-02  2.1285167294523052e-02  2.1563680885303232e-02  2.1845838789476678e-02 
 2.2131688692400751e-02  2.2421278903389401e-02  2.2714658363877555e-02  2.3011876655692272e-02 
 2.3312984009432294e-02  2.3618031312957061e-02  2.3927070119986925e-02  2.4240152658815801e-02 
 2.4557331841137928e-02  2.4878661270990036e-02  2.5204195253810558e-02  2.5533988805617421e-02 
 2.5868097662305772e-02  2.6206578289067632e-02  2.6549487889934532e-02  2.6896884417445182e-02 
 2.7248826582439569e-02  2.7605373863981229e-02  2.7966586519409364e-02  2.8332525594522456e-02 
 2.8703252933895206e-02  2.9078831191330277e-02  2.9459323840447110e-02  2.9844795185409025e-02 
 3.0235310371790763e-02  3.0630935397588308e-02  3.1031737124372630e-02  3.1437783288589510e-02 
 3.1849142513007127e-02  3.2265884318313509e-02  3.2688079134865579e-02  3.3115798314592243e-02 
 3.3549114143052873e-02  3.3988099851653804e-02  3.4432829630024642e-02  3.4883378638556423e-02 
 3.5339823021103930e-02  3.5802239917854195e-02  3.6270707478363418e-02  3.6745304874764233e-02 
 3.7226112315146269e-02  3.7713211057111312e-02  3.8206683421506099e-02  3.8706612806334723e-02 
 3.9213083700853101e-02  3.9726181699847853e-02  4.0245993518102041e-02  4.0772607005050171e-02 
 4.1306111159624875e-02  4.1846596145298100e-02  4.2394153305318816e-02  4.2948875178150325e-02 
 4.3510855513109417e-02  4.4080189286210270e-02  4.4656972716215611e-02  4.5241303280897899e-02 
 4.5833279733513387e-02  4.6433002119491432e-02  4.7040571793342707e-02  4.7656091435788174e-02 
 4.8279665071112400e-02  4.8911398084743915e-02  4.9551397241065602e-02  5.0199770701458153e-02 
 5.0856628042579566e-02  5.1522080274883905e-02  5.2196239861382200e-02  5.2879220736649163e-02 
 5.3571138326078280e-02  5.4272109565388998e-02  5.4982252920389135e-02  5.5701688406995908e-02 
 5.6430537611518859e-02  5.7168923711208304e-02  5.7916971495072557e-02  5.8674807384967421e-02 
 5.9442559456962071e-02  6.0220357462983980e-02  6.1008332852747406e-02  6.1806618795968687e-02 
 6.2615350204872217e-02  6.3434663756990972e-02  6.4264697918265279e-02  6.5105592966444040e-02 
 6.5957491014791675e-02  6.6820536036106021e-02  6.7694873887049811e-02  6.8580652332800862e-02 
 6.9478021072024748e-02  7.0387131762174204e-02  7.1308138045119651e-02  7.2241195573114994e-02 
 7.3186462035103303e-02  7.4144097183366328e-02  7.5114262860523473e-02  7.6097123026883248e-02 
 7.7092843788153093e-02  7.8101593423511542e-02  7.9123542414047940e-02  8.0158863471573985e-02 
 8.1207731567812566e-02  8.2270323963968453e-02  8.3346820240685487e-02  8.4437402328396721e-02 
 8.5542254538070614e-02  8.6661563592360297e-02  8.7795518657159996e-02  8.8944311373574558e-02 
 9.0108135890307348e-02  9.1287188896471666e-02  9.2481669654831927e-02  9.3691780035479066e-02 
 9.4917724549947721e-02  9.6159710385778668e-02  9.7417947441534244e-02  9.8692648362271568e-02 
 9.9984028575480166e-02  1.0129230632748969e-01  1.0261770272035403e-01  1.0396044174921827e-01 
 1.0532075034017396e-01  1.0669885838861071e-01  1.0809499879806872e-01  1.0950940751960017e-01 
 1.1094232359164542e-01  1.1239398918043111e-01  1.1386464962089686e-01  1.1535455345815743e-01 
 1.1686395248950743e-01  1.1839310180697564e-01  1.1994225984043630e-01  1.2151168840128417e-01 
 1.2310165272668164e-01  1.2471242152438355e-01  1.2634426701815069e-01  1.2799746499375550e-01 
 1.2967229484559059e-01  1.3136903962388718e-01  1.3308798608255126e-01  1.3482942472762557e-01 
 1.3659364986638589e-01  1.3838095965707975e-01  1.4019165615931573e-01  1.4202604538511232e-01 
 1.4388443735061476e-01  1.4576714612848832e-01  1.4767448990099749e-01  1.4960679101377949e-01 
 1.5156437603032147e-01  1.5354757578715045e-01  1.5555672544974580e-01  1.5759216456918199e-01 
 1.5965423713951493e-01  1.6174329165591697e-01  1.6385968117357355e-01  1.6600376336735037e-01 
 1.6817590059224127e-01  1.7037645994460718e-01  1.7260581332421618e-01  1.7486433749709554e-01 
 1.7715241415920591e-01  1.7947043000094909e-01  1.8181877677251940e-01  1.8419785135011055e-01 
 1.8660805580298856e-01  1.8904979746144251e-01  1.9152348898562427e-01  1.9402954843528900e-01 
 1.9656839934044876e-01  1.9914047077294850e-01  2.0174619741898248e-01  2.0438601965255571e-01 
 2.0706038360990875e-01  2.0976974126491554e-01  2.1251455050546844e-01  2.1529527521086195e-01 
 2.1811238533018967e-01  2.2096635696176678e-01  2.2385767243359170e-01  2.2678682038486084e-01 
 2.2975429584854959e-01  2.3276060033507417e-01  2.3580624191704813e-01  2.3889173531514776e-01 
 2.4201760198510111e-01  2.4518437020581518e-01  2.4839257516865706e-01  2.5164275906790035e-01 
 2.5493547119236021e-01  2.5827126801822264e-01  2.6165071330309081e-01  2.6507437818126117e-01 
 2.6854284126024686e-01  2.7205668871856342e-01  2.7561651440479468e-01  2.7922291993795434e-01 
 2.8287651480916098e-01  2.8657791648464398e-01  2.9032775051009596e-01  2.9412665061639232e-01 
 2.9797525882669273e-01  3.0187422556494475e-01  3.0582420976580715e-01  3.0982587898601116e-01 
 3.1387990951717992e-01  3.1798698650012108e-01  3.2214780404062054e-01  3.2636306532674586e-01 
 3.3063348274768700e-01  3.3495977801415222e-01  3.3934268228033848e-01  3.4378293626749856e-01 
 3.4828129038912442e-01  3.5283850487776930e-01  3.5745534991352823e-01  3.6213260575420092e-01 
 3.6687106286715659e-01  3.7167152206292553e-01  3.7653479463053730e-01  3.8146170247463074e-01 
 3.8645307825435826e-01  3.9150976552410643e-01  3.9663261887606005e-01  4.0182250408462700e-01 
 4.0708029825276065e-01  4.1240688996018954e-01  4.1780317941359002e-01  4.2327007859872329e-01 
 4.2880851143456361e-01  4.3441941392944200e-01  4.4010373433923478e-01  4.4586243332762027e-01 
 4.5169648412843388e-01  4.5760687271014655e-01  4.6359459794249586e-01  4.6966067176529741e-01 
 4.7580611935946515e-01  4.8203197932026925e-01  4.8833930383286117e-01  4.9472915885009572e-01 
 5.0120262427267992e-01  5.0776079413167619e-01  5.1440477677340046e-01  5.2113569504673263e-01 
 5.2795468649288102e-01  5.3486290353763000e-01  5.4186151368610214e-01  5.4895169972007007e-01 
 5.5613465989784905e-01  5.6341160815680491e-01  5.7078377431851335e-01  5.7825240429660230e-01 
 5.8581876030731406e-01  5.9348412108282300e-01  6.0124978208734459e-01  6.0911705573607167e-01 
 6.1708727161697552e-01  6.2516177671551021e-01  6.3334193564225627e-01  6.4162913086353990e-01 
 6.5002476293507894e-01  6.5853025073867577e-01  6.6714703172201306e-01  6.7587656214158609e-01 
 6.8472031730881233e-01  6.9367979183936457e-01  7.0275649990576261e-01  7.1195197549327316e-01 
 7.2126777265915665e-01  7.3070546579530671e-01  7.4026664989432578e-01  7.4995294081908326e-01 
 7.5976597557579961e-01  7.6970741259070496e-01  7.7977893199031612e-01  7.8998223588538297e-01 
 8.0031904865855008e-01  8.1079111725577580e-01  8.2140021148157893e-01  8.3214812429813445e-01 
 8.4303667212828959e-01  8.5406769516254299e-01  8.6524305767004273e-01  8.7656464831365088e-01 
 8.8803438046913263e-01  8.9965419254852153e-01  9.1142604832771490e-01  9.2335193727835807e-01 
 9.3543387490406804e-01  9.4767390308105992e-01  9.6007409040322833e-01  9.7263653253174387e-01 
 9.8536335254922636e-01  9.9825670131854971e-01  1.0113187578463452e+00  1.0245517296512516e+00 
 1.0379578531370011e+00  1.0515393939703710e+00  1.0652986474640873e+00  1.0792379389647389e+00 
 1.0933596242457659e+00  1.1076660899055926e+00  1.1221597537709656e+00  1.1368430653055748e+00 
 1.1517185060240169e+00  1.1667885899111787e+00  1.1820558638471050e+00  1.1975229080374290e+00 
 1.2131923364494315e+00  1.2290667972538092e+00  1.2451489732722205e+00  1.2614415824306899e+00 
 1.2779473782189454e+00  1.2946691501557561e+00  1.3116097242603808e+00  1.3287719635301638e+00 
 1.3461587684243890e+00  1.3637730773544661e+00  1.3816178671805279e+00  1.3996961537145274e+00 
 1.4180109922299169e+00  1.4365654779779966e+00  1.4553627467110193e+00  1.4744059752121403e+00 
 1.4936983818323011e+00  1.5132432270341383e+00  1.5330438139430094e+00  1.5531034889052295e+00 
 1.5734256420536110e+00  1.5940137078804051e+00  1.6148711658177404e+00  1.6360015408256456e+00 
 1.6574084039877925e+00  1.6790953731150058e+00  1.7010661133566845e+00  1.7233243378202225e+00 
 1.7458738081985310e+00  1.7687183354057736e+00  1.7918617802214203e+00  1.8153080539427289e+00 
 1.8390611190457626e+00  1.8631249898550584e+00  1.8875037332220577e+00  1.9122014692124125e+00 
 1.9372223718022890e+00  1.9625706695837768e+00  1.9882506464795322e+00  2.0142666424667715e+00 
 2.0406230543107404e+00  2.0673243363077654e+00  2.0943750010380575e+00  2.1217796201283403e+00 
 2.1495428250244655e+00  2.1776693077741403e+00  2.2061638218198918e+00  2.2350311828024148e+00 
 2.2642762693744216e+00  2.2939040240251494e+00  2.3239194539156505e+00  2.3543276317250168e+00 
 2.3851336965076717e+00  2.4163428545618859e+00  2.4479603803096501e+00  2.4799916171880700e+00 
 2.5124419785524141e+00  2.5453169485909890e+00  2.5786220832519806e+00  2.6123630111824068e+00 
 2.6465454346794002e+00  2.6811751306538882e+00  2.7162579516069134e+00  2.7517998266187162e+00 
 2.7878067623507676e+00  2.8242848440609065e+00  2.8612402366317622e+00  2.8986791856126377e+00 
 2.9366080182750185e+00  2.9750331446818983e+00  3.0139610587710970e+00  3.0533983394527464e+00 
 3.0933516517211466e+00  3.1338277477811642e+00  3.1748334681893700e+00  3.2163757430101101e+00 
 3.2584615929867105e+00  3.3010981307279743e+00  3.3442925619102630e+00  3.3880521864952549e+00 
 3.4323843999636563e+00  3.4772966945650587e+00  3.5227966605841452e+00  3.5688919876234668e+00 
 3.6155904659030051e+00  3.6628999875767363e+00  3.7108285480664240e+00  3.7593842474128660e+00 
 3.8085752916448192e+00  3.8584099941658376e+00  3.9088967771592591e+00  3.9600441730115734e+00 
 4.0118608257544146e+00  4.0643554925254248e+00  4.1175370450482385e+00  4.1714144711317953e+00 
 4.2259968761893427e+00  4.2812934847772475e+00  4.3373136421539726e+00  4.3940668158594480e+00 
 4.4515625973151076e+00  4.5098107034448631e+00  4.5688209783172855e+00  4.6286033948092804e+00 
 4.6891680562915221e+00  4.7505251983359500e+00  4.8126851904456061e+00  4.8756585378071051e+00 
 4.9394558830660307e+00  5.0040880081255787e+00  5.0695658359687128e+00  5.1359004325041830e+00 
 5.2031030084366954e+00  5.2711849211615132e+00  5.3401576766839369e+00  5.4100329315638120e+00 
 5.4808224948855235e+00  5.5525383302537588e+00  5.6251925578153852e+00  5.6987974563077843e+00 
 5.7733654651339883e+00  5.8489091864649696e+00  5.9254413873694327e+00  6.0029750019714845e+00 
 6.0815231336365301e+00  6.1610990571857744e+00  6.2417162211396953e+00  6.3233882499908773e+00 
 6.4061289465065823e+00  6.4899522940614549e+00  6.5748724590007495e+00  6.6609037930344357e+00 
 6.7480608356627396e+00  6.8363583166333095e+00  6.9258111584305837e+00  7.0164344787977333e+00 
 7.1082435932915926e+00  7.2012540178710260e+00  7.2954814715191603e+00  7.3909418788999330e+00 
 7.4876513730493963e+00  7.5856262981022402e+00  7.6848832120539878e+00  7.7854388895593374e+00 
 7.8873103247671201e+00  7.9905147341923506e+00  8.0950695596258555e+00  8.2009924710819888e+00 
 8.3083013697849033e+00  8.4170143911938595e+00  8.5271499080682371e+00  8.6387265335725179e+00 
 8.7517631244219753e+00  8.8662787840695056e+00  8.9822928659341450e+00  9.0998249766718526e+00 
 9.2188949794890807e+00  9.3395229974997047e+00  9.4617294171258752e+00  9.5855348915433698e+00 
 9.7109603441720367e+00  9.8380269722118925e+00  9.9667562502255116e+00  1.0097169933767260e+01 
 1.0229290063060056e+01  1.0363138966720209e+01  1.0498739265531031e+01  1.0636113876265725e+01 
 1.0775286015560486e+01  1.0916279203838100e+01  1.1059117269282963e+01  1.1203824351868105e+01 
 1.1350424907434897e+01  1.1498943711826156e+01  1.1649405865073311e+01  1.1801836795638378e+01 
 1.1956262264711418e+01  1.2112708370564258e+01  1.2271201552961140e+01  1.2431768597627119e+01 
 1.2594436640774910e+01  1.2759233173690969e+01  1.2926186047381591e+01  1.3095323477279793e+01 
 1.3266674048013817e+01  1.3440266718237899e+01  1.3616130825526497e+01  1.3794296091332320e+01 
 1.3974792626009336e+01  1.4157650933901506e+01  1.4342901918498082e+01  1.4530576887656380e+01 
 1.4720707558892872e+01  1.4913326064743524e+01  1.5108464958194277e+01  1.5306157218182571e+01 
 1.5506436255170874e+01  1.5709335916793119e+01  1.5914890493575042e+01  1.6123134724729358e+01 
 1.6334103804026775e+01  1.6547833385743814e+01  1.6764359590688525e+01  1.6983719012304825e+01 
 1.7205948722857102e+01  1.7431086279695361e+01  1.7659169731602564e+01  1.7890237625224938e+01 
 1.8124329011586472e+01  1.8361483452688621e+01  1.8601741028196379e+01  1.8845142342211847e+01 
 1.9091728530136411e+01  1.9341541265622730e+01  1.9594622767617675e+01  1.9851015807497447e+01 
 2.0110763716296024e+01  2.0373910392028218e+01  2.0640500307108542e+01  2.0910578515867158e+01 
 2.1184190662164188e+01  2.1461382987103512e+01  2.1742202336847825e+01  2.2026696170535608e+01 
 2.2314912568301878e+01  2.2606900239403849e+01  2.2902708530452884e+01  2.3202387433754225e+01 
 2.3505987595755801e+01  2.3813560325607583e+01  2.4125157603832967e+01  2.4440832091113609e+01 
 2.4760637137189200e+01  2.5084626789873681e+01  2.5412855804189491e+01  2.5745379651621263e+01 
 2.6082254529490655e+01  2.6423537370453868e+01  2.6769285852123211e+01  2.7119558406815059e+01 
 2.7474414231424831e+01  2.7833913297431472e+01  2.8198116361032788e+01  2.8567084973413362e+01 
 2.8940881491146875e+01  2.9319569086734482e+01  2.9703211759281164e+01  3.0091874345311677e+01 
 3.0485622529728122e+01  3.0884522856910820e+01  3.1288642741964487e+01  3.1698050482111544e+01 
 3.2112815268234506e+01  3.2533007196569407e+01  3.2958697280552236e+01  3.3389957462820412e+01 
 3.3826860627371090e+01  3.4269480611878990e+01  3.4717892220174974e+01  3.5172171234888111e+01 
 3.5632394430253107e+01  3.6098639585085373e+01  3.6570985495925761e+01  3.7049511990357452e+01 
 3.7534299940496936e+01  3.8025431276661628e+01  3.8522989001216281e+01  3.9027057202600581e+01 
 3.9537721069540282e+01  4.0055066905444349e+01  4.0579182142990369e+01  4.1110155358900933e+01 
 4.1648076288913288e+01  4.2193035842945001e+01  4.2745126120457613e+01  4.3304440426022104e+01 
 4.3871073285087355e+01  4.4445120459955191e+01  4.5026678965964436e+01  4.5615847087886792e+01 
 4.6212724396537119e+01  4.6817411765601214e+01  4.7430011388683681e+01  4.8050626796578833e+01 
 4.8679362874767754e+01  4.9316325881144110e+01  4.9961623463971989e+01  5.0615364680078791e+01 
 5.1277660013285988e+01  5.1948621393081218e+01  5.2628362213534629e+01  5.3316997352462806e+01 
 5.4014643190843074e+01  5.4721417632482670e+01  5.5437440123944427e+01  5.6162831674733589e+01 
 5.6897714877748761e+01  5.7642213930000338e+01  5.8396454653600131e+01  5.9160564517025591e+01 
 5.9934672656662300e+01  6.0718909898628304e+01  6.1513408780884049e+01  6.2318303575631639e+01 
 6.3133730312007081e+01  6.3959826799069653e+01  6.4796732649091837e+01  6.5644589301154227e+01 
 6.6503540045048965e+01  6.7373730045496288e+01  6.8255306366677203e+01  6.9148417997088302e+01 
 7.0053215874720834e+01  7.0969852912569621e+01  7.1898484024475763e+01  7.2839266151307370e+01 
 7.3792358287483069e+01  7.4757921507842283e+01  7.5736118994867411e+01  7.6727116066261971e+01 
 7.7731080202889686e+01  7.8748181077079181e+01  7.9778590581298985e+01  8.0822482857207788e+01 
 8.1880034325084793e+01  8.2951423713645141e+01  8.4036832090245511e+01  8.5136442891485061e+01 
 8.6250441954206110e+01  8.7379017546901807e+01  8.8522360401533447e+01  8.9680663745764718e+01 