  <PP_INFO>

############################################################
#    Opium Parameter File                                  #
############################################################
#-----------------------------------------------------------
#Command line   : ../../../opium h h.log all ke rpt upf 
 
#Opium version  : 3.8 
#Compile Host   : esa047.wireless-pennnet.upenn.edu 
#Compile OS     : Darwin 14.5.0 i386 
#Compile Date   : Fri Apr 15 15:44:01 EDT 2016 
#-----------------------------------------------------------
#Execution Host : vagvlan567.0481.wlan.wireless-pennnet.upenn.edu 
#Execution Date : Thu May 12 17:57:40 2016
 
#-----------------------------------------------------------
############################################################
[Atom]
H  
1
100   1.00   -

[Pseudo]
1  0.77
opt

[Optinfo]
7.07  10
conmax

[Configs]
1
#
100  1.00  -

[XC]
hf

#[HFsmooth]
#1
#1e-6
#0.0 0.0
############################################################
  </PP_INFO>



<PP_HEADER>
   0         Version Number
   H        Element
   NC        Norm - Conserving pseudopotential
    F      Nonlinear Core Correction
HF  NOC   NOGX  NOGC     HF  Exchange-Correlation functional
 1          Z valence
 0          Total energy
 0.000000   0.000000     Suggested cutoff for wfc and rho
 0           Max angular momentum component
 1076           Number of points in mesh
 1  0     Number of Wavefuncitons, Number of Projectors
 Wavefunctions         nl  l   occ
                       S  0  1.000000
</PP_HEADER>
<PP_MESH>
  <PP_R>
 1.0000000000000010e-04  1.0130848673598100e-04  1.0263409484734427e-04  1.0397704836501585e-04 
 1.0533757425133652e-04  1.0671590243841932e-04  1.0811226586700835e-04  1.0952690052584657e-04 
 1.1096004549155827e-04  1.1241194296905369e-04  1.1388283833246239e-04  1.1537298016660124e-04 
 1.1688262030898709e-04  1.1841201389239710e-04  1.1996141938798698e-04  1.2153109864897321e-04 
 1.2312131695488691e-04  1.2473234305640659e-04  1.2636444922077788e-04  1.2801791127782709e-04 
 1.2969300866657728e-04  1.3139002448247402e-04  1.3310924552522923e-04  1.3485096234729110e-04 
 1.3661546930294802e-04  1.3840306459807515e-04  1.4021405034053206e-04  1.4204873259121976e-04 
 1.4390742141580484e-04  1.4579043093712282e-04  1.4769807938826447e-04  1.4963068916635846e-04 
 1.5158858688705707e-04  1.5357210343973514e-04  1.5558157404341094e-04  1.5761733830339927e-04 
 1.5967974026870541e-04  1.6176912849017017e-04  1.6388585607937593e-04  1.6603028076832337e-04 
 1.6820276496988873e-04  1.7040367583907287e-04  1.7263338533505103e-04  1.7489227028403499e-04 
 1.7718071244295747e-04  1.7949909856399002e-04  1.8184782045990543e-04  1.8422727507029371e-04 
 1.8663786452864753e-04  1.8907999623032291e-04  1.9155408290138983e-04  1.9406054266838440e-04 
 1.9659979912897276e-04  1.9917228142354049e-04  2.0177842430771806e-04  2.0441866822585583e-04 
 2.0709345938545997e-04  2.0980324983260274e-04  2.1254849752831920e-04  2.1532966642600398e-04 
 2.1814722654982019e-04  2.2100165407413480e-04  2.2389343140399322e-04  2.2682304725664737e-04 
 2.2979099674414835e-04  2.3279778145702382e-04  2.3584390954904680e-04  2.3892989582311488e-04 
 2.4205626181825337e-04  2.4522353589775638e-04  2.4843225333848190e-04  2.5168295642131447e-04 
 2.5497619452281194e-04  2.5831252420805182e-04  2.6169250932469164e-04  2.6511672109826083e-04 
 2.6858573822869904e-04  2.7210014698815797e-04  2.7566054132008251e-04  2.7926752293958902e-04 
 2.8292170143515648e-04  2.8662369437164645e-04  2.9037412739467845e-04  2.9417363433635813e-04 
 2.9802285732240231e-04  3.0192244688065725e-04  3.0587306205103967e-04  3.0987537049691617e-04 
 3.1393004861793994e-04  3.1803778166436417e-04  3.2219926385285028e-04  3.2641519848379292e-04 
 3.3068629806017909e-04  3.3501328440800279e-04  3.3939688879825554e-04  3.4383785207051261e-04 
 3.4833692475813723e-04  3.5289486721512119e-04  3.5751244974458851e-04  3.6219045272897684e-04 
 3.6692966676192469e-04  3.7173089278188349e-04  3.7659494220747768e-04  3.8152263707463797e-04 
 3.8651481017552413e-04  3.9157230519927262e-04  3.9669597687457979e-04  4.0188669111415354e-04 
 4.0714532516105474e-04  4.1247276773695348e-04  4.1786991919232487e-04  4.2333769165861051e-04 
 4.2887700920237127e-04  4.3448880798145590e-04  4.4017403640321523e-04  4.4593365528478301e-04 
 4.5176863801545922e-04  4.5767997072121300e-04  4.6366865243134135e-04  4.6973569524730698e-04 
 4.7588212451378558e-04  4.8210897899195312e-04  4.8841731103503583e-04  4.9480818676616374e-04 
 5.0128268625854666e-04  5.0784190371800850e-04  5.1448694766791157e-04  5.2121894113649930e-04 
 5.2803902184669058e-04  5.3494834240835768e-04  5.4194807051312084e-04  5.4903938913168941e-04 
 5.5622349671378859e-04  5.6350160739069785e-04  5.7087495118044438e-04  5.7834477419567789e-04 
 5.8591233885426698e-04  5.9357892409265070e-04  6.0134582558198123e-04  6.0921435594709684e-04 
 6.1718584498835600e-04  6.2526163990638038e-04  6.3344310552973212e-04  6.4173162454557421e-04 
 6.5012859773334788e-04  6.5863544420150725e-04  6.6725360162735289e-04  6.7598452650000172e-04 
 6.8482969436653744e-04  6.9379060008138216e-04  7.0286875805893013e-04  7.1206570252948501e-04 
 7.2138298779855260e-04  7.3082218850951920e-04  7.4038489990977177e-04  7.5007273812029715e-04 
 7.5988734040881008e-04  7.6983036546645744e-04  7.7990349368813939e-04  7.9010842745650051e-04 
 8.0044689142963607e-04  8.1092063283256426e-04  8.2153142175251076e-04  8.3228105143805773e-04 
 8.4317133860220723e-04  8.5420412372940965e-04  8.6538127138661091e-04  8.7670467053836774e-04 
 8.8817623486608748e-04  8.9979790309144541e-04  9.1157163930403139e-04  9.2349943329328823e-04 
 9.3558330088478999e-04  9.4782528428092032e-04  9.6022745240600959e-04  9.7279190125598963e-04 
 9.8552075425262079e-04  9.9841616260235521e-04  1.0114803056598966e-03  1.0247153912965156e-03 
 1.0381236562731853e-03  1.0517073666185999e-03  1.0654688180121385e-03  1.0794103361718398e-03 
 1.0935342772474550e-03  1.1078430282186425e-03  1.1223390072983728e-03  1.1370246643416127e-03 
 1.1519024812593542e-03  1.1669749724380681e-03  1.1822446851646369e-03  1.1977142000568566e-03 
 1.2133861314995603e-03  1.2292631280864637e-03  1.2453478730677793e-03  1.2616430848036914e-03 
 1.2781515172237681e-03  1.2948759602923799e-03  1.3118192404802107e-03  1.3289842212419398e-03 
 1.3463738035001699e-03  1.3639909261356912e-03  1.3818385664841597e-03  1.3999197408392737e-03 
 1.4182375049625337e-03  1.4367949545996766e-03  1.4555952260038561e-03  1.4746414964656881e-03 
 1.4939369848502118e-03  1.5134849521408914e-03  1.5332887019907217e-03  1.5533515812805642e-03 
 1.5736769806847699e-03  1.5942683352442150e-03  1.6151291249468292e-03  1.6362628753157226e-03 
 1.6576731580050087e-03  1.6793635914034205e-03  1.7013378412458265e-03  1.7235996212327520e-03 
 1.7461526936579995e-03  1.7690008700444878e-03  1.7921480117884065e-03  1.8155980308118050e-03 
 1.8393548902237080e-03  1.8634226049899017e-03  1.8878052426114641e-03  1.9125069238121891e-03 
 1.9375318232349881e-03  1.9628841701474272e-03  1.9885682491564746e-03  2.0145884009326151e-03 
 2.0409490229434282e-03  2.0676545701967747e-03  2.0947095559937031e-03  2.1221185526912050e-03 
 2.1498861924749589e-03  2.1780171681421785e-03  2.2065162338947061e-03  2.2353882061424838e-03 
 2.2646379643175398e-03  2.2942704516986248e-03  2.3242906762466304e-03  2.3547037114509586e-03 
 2.3855146971869449e-03  2.4167288405845130e-03  2.4483514169081864e-03  2.4803877704486304e-03 
 2.5128433154258437e-03  2.5457235369041736e-03  2.5790339917193088e-03  2.6127803094173944e-03 
 2.6469681932064421e-03  2.6816034209201814e-03  2.7166918459945329e-03  2.7522393984568462e-03 
 2.7882520859280942e-03  2.8247359946381744e-03  2.8616972904544932e-03  2.8991422199240178e-03 
 2.9370771113289458e-03  2.9755083757562165e-03  3.0144425081809869e-03  3.0538860885643082e-03 
 3.0938457829651385e-03  3.1343283446669417e-03  3.1753406153189989e-03  3.2168895260926626e-03 
 3.2589820988527434e-03  3.3016254473442240e-03  3.3448267783944934e-03  3.3885933931313227e-03 
 3.4329326882167714e-03  3.4778521570972411e-03  3.5233593912698839e-03  3.5694620815655879e-03 
 3.6161680194487411e-03  3.6634850983340152e-03  3.7114213149203532e-03  3.7599847705424541e-03 
 3.8091836725399038e-03  3.8590263356442422e-03  3.9095211833841568e-03  3.9606767495091030e-03 
 4.0125016794315084e-03  4.0650047316878810e-03  4.1181947794190132e-03  4.1720808118695697e-03 
 4.2266719359072879e-03  4.2819773775620608e-03  4.3380064835851634e-03  4.3947687230288671e-03 
 4.4522736888467371e-03  4.5105310995148650e-03  4.5695508006743102e-03  4.6293427667950466e-03 
 4.6899171028616515e-03  4.7512840460810970e-03  4.8134539676128454e-03  4.8764373743216093e-03 
 4.9402449105530235e-03  5.0048873599325815e-03  5.0703756471880846e-03  5.1367208399959469e-03 
 5.2039341508516605e-03  5.2720269389647349e-03  5.3410107121784284e-03  5.4108971289146034e-03 
 5.4816980001440212e-03  5.5534252913824371e-03  5.6260911247127902e-03  5.6997077808338568e-03 
 5.7742877011357401e-03  5.8498434898024768e-03  5.9263879159421849e-03  6.0039339157450635e-03 
 6.0824945946696468e-03  6.1620832296576545e-03  6.2427132713778286e-03  6.3243983464991325e-03 
 6.4071522599936700e-03  6.4909889974697878e-03  6.5759227275356599e-03  6.6619678041938170e-03 
 6.7491387692670112e-03  6.8374503548558159e-03  6.9269174858283830e-03  7.0175552823427906e-03 
 7.1093790624023791e-03  7.2024043444445180e-03  7.2966468499632876e-03  7.3921225061664248e-03 
 7.4888474486670730e-03  7.5868380242107248e-03  7.6861107934378782e-03  7.7866825336828102e-03 
 7.8885702418089922e-03  7.9917911370816063e-03  8.0963626640776169e-03  8.2023024956339816e-03 
 8.3096285358343850e-03  8.4183589230350606e-03  8.5285120329302404e-03  8.6401064816576667e-03 
 8.7531611289447843e-03  8.8676950812960620e-03  8.9837276952220626e-03  9.1012785805106855e-03 
 9.2203676035413403e-03  9.3410148906423567e-03  9.4632408314924161e-03  9.5870660825664224e-03 
 9.7125115706265270e-03  9.8395984962587873e-03  9.9683483374561101e-03  1.0098782853248105e-02 
 1.0230924087378371e-02  1.0364794372029992e-02  1.0500416331599699e-02  1.0637812886521455e-02 
 1.0777007257140056e-02  1.0918022967635433e-02  1.1060883849998291e-02  1.1205614048057774e-02 
 1.1352238021561833e-02  1.1500780550310950e-02  1.1651266738346041e-02  1.1803722018191055e-02 
 1.1958172155151141e-02  1.2114643251667055e-02  1.2273161751726526e-02  1.2433754445333350e-02 
 1.2596448473034970e-02  1.2761271330509315e-02  1.2928250873211563e-02  1.3097415321081872e-02 
 1.3268793263314559e-02  1.3442413663189757e-02  1.3618305862968281e-02  1.3796499588850531e-02 
 1.3977024956000299e-02  1.4159912473634307e-02  1.4345193050178328e-02  1.4532897998490765e-02 
 1.4723059041154653e-02  1.4915708315838801e-02  1.5110878380729151e-02  1.5308602220031197e-02 
 1.5508913249544383e-02  1.5711845322309459e-02  1.5917432734329714e-02  1.6125710230367116e-02 
 1.6336713009814183e-02  1.6550476732642871e-02  1.6767037525431110e-02  1.6986431987468319e-02 
 1.7208697196940754e-02  1.7433870717197843e-02  1.7661990603100437e-02  1.7893095407452202e-02 
 1.8127224187515136e-02  1.8364416511610294e-02  1.8604712465805001e-02  1.8848152660687446e-02 
 1.9094778238229977e-02  1.9344630878742185e-02  1.9597752807914991e-02  1.9854186803956883e-02 
 2.0113976204823528e-02  2.0377164915542024e-02  2.0643797415630844e-02  2.0913918766617141e-02 
 2.1187574619652146e-02  2.1464811223226351e-02  2.1745675430985611e-02  2.2030214709649519e-02 
 2.2318477147033396e-02  2.2610511460175255e-02  2.2906367003569114e-02  2.3206093777505921e-02 
 2.3509742436523880e-02  2.3817364297969070e-02  2.4129011350668243e-02  2.4444736263715065e-02 
 2.4764592395371293e-02  2.5088633802084460e-02  2.5416915247623559e-02  2.5749492212334246e-02 
 2.6086420902515072e-02  2.6427758259916632e-02  2.6773561971364740e-02  2.7123890478509678e-02 
 2.7478802987702965e-02  2.7838359480003381e-02  2.8202620721313913e-02  2.8571648272651299e-02 
 2.8945504500550084e-02  2.9324252587602542e-02  2.9707956543136859e-02  3.0096681214034776e-02 
 3.0490492295690876e-02  3.0889456343115271e-02  3.1293640782181546e-02  3.1703113921021903e-02 
 3.2117944961571394e-02  3.2538204011263228e-02  3.2963962094877015e-02  3.3395291166542260e-02 
 3.3832264121898666e-02  3.4274954810415738e-02  3.4723438047873471e-02  3.5177789629006445e-02 
 3.5638086340313263e-02  3.6104405973033694e-02  3.6576827336295560e-02  3.7055430270433627e-02 
 3.7540295660482906e-02  3.8031505449848339e-02  3.8529142654153463e-02  3.9033291375270222e-02 
 3.9544036815532410e-02  4.0061465292135057e-02  4.0585664251722248e-02  4.1116722285165802e-02 
 4.1654729142537303e-02  4.2199775748276179e-02  4.2751954216556060e-02  4.3311357866852328e-02 
 4.3878081239713318e-02  4.4452220112737889e-02  4.5033871516762095e-02  4.5623133752257614e-02 
 4.6220106405944768e-02  4.6824890367622822e-02  4.7437587847220762e-02  4.8058302392070935e-02 
 4.8687138904408782e-02  4.9324203659101562e-02  4.9969604321609122e-02  5.0623449966179526e-02 
 5.1285851094282908e-02  5.1956919653286561e-02  5.2636769055374080e-02  5.3325514196712540e-02 
 5.4023271476870145e-02  5.4730158818487945e-02  5.5446295687209143e-02  5.6171803111869034e-02 
 5.6906803704949140e-02  5.7651421683299092e-02  5.8405782889129537e-02  5.9170014811279599e-02 
 5.9944246606763139e-02  6.0728609122596311e-02  6.1523234917911174e-02  6.2328258286358421e-02 
 6.3143815278803334e-02  6.3970043726318773e-02  6.4807083263478824e-02  6.5655075351957609e-02 
 6.6514163304436255e-02  6.7384492308823485e-02  6.8266209452792506e-02  6.9159463748639224e-02 
 7.0064406158465695e-02  7.0981189619693019e-02  7.1909969070908145e-02  7.2850901478048957e-02 
 7.3804145860931800e-02  7.4769863320126098e-02  7.5748217064181014e-02  7.6739372437207840e-02 
 7.7743496946823684e-02  7.8760760292460597e-02  7.9791334394045149e-02  8.0835393421053406e-02 
 8.1893113821945890e-02  8.2964674353987855e-02  8.4050256113459551e-02  8.5150042566262130e-02 
 8.6264219578923787e-02  8.7392975450011443e-02  8.8536500941953880e-02  8.9694989313280973e-02 
 9.0868636351284740e-02  9.2057640405108027e-02  9.3262202419265944e-02  9.4482525967605716e-02 
 9.5718817287711533e-02  9.6971285315759034e-02  9.8240141721825949e-02  9.9525600945664885e-02 
 1.0082788023294419e-01  1.0214719967196297e-01  1.0348378223084655e-01  1.0483785379522863e-01 
 1.0620964320642626e-01  1.0759938230011498e-01  1.0900730594550938e-01  1.1043365208505650e-01 
 1.1187866177464875e-01  1.1334257922436299e-01  1.1482565183973242e-01  1.1632813026355893e-01 
 1.1785026841827229e-01  1.1939232354884330e-01  1.2095455626625930e-01  1.2253723059156785e-01 
 1.2414061400049688e-01  1.2576497746865864e-01  1.2741059551734540e-01  1.2907774625992416e-01 
 1.3076671144883834e-01  1.3247777652322495e-01  1.3421123065715376e-01  1.3596736680849936e-01 
 1.3774648176845108e-01  1.3954887621167161e-01  1.4137485474711176e-01  1.4322472596948999e-01 
 1.4509880251144575e-01  1.4699740109637516e-01  1.4892084259195801e-01  1.5086945206438476e-01 
 1.5284355883329431e-01  1.5484349652742915e-01  1.5686960314101961e-01  1.5892222109090573e-01 
 1.6100169727440650e-01  1.6310838312794623e-01  1.6524263468644834e-01  1.6740481264350604e-01 
 1.6959528241234001e-01  1.7181441418755480e-01  1.7406258300770230e-01  1.7634016881866382e-01 
 1.7864755653786235e-01  1.8098513611931424e-01  1.8335330261953253e-01  1.8575245626429202e-01 
 1.8818300251626918e-01  1.9064535214356518e-01  1.9313992128912782e-01  1.9566713154108001e-01 
 1.9822741000396937e-01  2.0082118937094978e-01  2.0344890799690776e-01  2.0611100997254531e-01 
 2.0880794519943230e-01  2.1154016946604137e-01  2.1430814452477603e-01  2.1711233817000955e-01 
 2.1995322431714215e-01  2.2283128308269423e-01  2.2574700086544736e-01  2.2870087042864645e-01 
 2.3169339098327815e-01  2.3472506827243875e-01  2.3779641465680593e-01  2.4090794920122838e-01 
 2.4406019776245008e-01  2.4725369307798051e-01  2.5048897485612887e-01  2.5376658986721584e-01 
 2.5708709203597940e-01  2.6045104253518919e-01  2.6385900988048611e-01  2.6731157002646311e-01 
 2.7080930646400170e-01  2.7435281031888498e-01  2.7794268045169845e-01  2.8157952355903876e-01 
 2.8526395427604695e-01  2.8899659528028371e-01  2.9277807739696260e-01  2.9660903970556179e-01 
 3.0049012964782940e-01  3.0442200313720313e-01  3.0840532466966075e-01  3.1244076743602212e-01 
 3.1652901343571999e-01  3.2067075359205760e-01  3.2486668786897965e-01  3.2911752538936584e-01 
 3.3342398455487421e-01  3.3778679316735377e-01  3.4220668855184389e-01  3.4668441768118424e-01 
 3.5122073730225523e-01  3.5581641406386949e-01  3.6047222464633816e-01  3.6518895589273082e-01 
 3.6996740494185437e-01  3.7480837936297123e-01  3.7971269729228080e-01  3.8468118757118552e-01 
 3.8971468988636832e-01  3.9481405491170057e-01  3.9998014445200930e-01  4.0521383158872110e-01 
 4.1051600082741951e-01  4.1588754824732554e-01  4.2132938165273798e-01  4.2684242072645440e-01 
 4.3242759718519991e-01  4.3808585493708924e-01  4.4381815024114957e-01  4.4962545186893077e-01 
 4.5550874126822999e-01  4.6146901272895835e-01  4.6750727355117883e-01  4.7362454421534195e-01 
 4.7982185855474985e-01  4.8610026393027567e-01  4.9246082140737152e-01  4.9890460593538960e-01 
 5.0543270652925287e-01  5.1204622645349751e-01  5.1874628340873219e-01  5.2553400972052944e-01 
 5.3241055253079117e-01  5.3937707399161927e-01  5.4643475146172138e-01  5.5358477770538816e-01 
 5.6082836109407264e-01  5.6816672581060756e-01  5.7560111205609643e-01  5.8313277625950910e-01 
 5.9076299129002197e-01  5.9849304667213599e-01  6.0632424880360891e-01  6.1425792117624001e-01 
 6.2229540459954302e-01  6.3043805742734682e-01  6.3868725578736052e-01  6.4704439381373857e-01 
 6.5551088388269940e-01  6.6408815685121569e-01  6.7277766229883385e-01  6.8158086877265656e-01 
 6.9049926403553019e-01  6.9953435531748076e-01  7.0868766957043972e-01  7.1796075372630108e-01 
 7.2735517495835822e-01  7.3687252094615918e-01  7.4651440014382764e-01  7.5628244205189721e-01 
 7.6617829749269861e-01  7.7620363888935495e-01  7.8636016054842328e-01  7.9664957894623756e-01 
 8.0707363301899815e-01  8.1763408445665109e-01  8.2833271800062513e-01  8.3917134174545349e-01 
 8.5015178744434594e-01  8.6127591081875965e-01  8.7254559187202163e-01  8.8396273520705326e-01 
 8.9552927034825169e-01  9.0724715206758533e-01  9.1911836071495390e-01  9.3114490255287430e-01 
 9.4332881009554093e-01  9.5567214245232779e-01  9.6817698567578081e-01  9.8084545311416826e-01 
 9.9367968576863885e-01  1.0066818526550583e+00  1.0198541511705783e+00  1.0331988074649963e+00 
 1.0467180768169884e+00  1.0604142440152531e+00  1.0742896237446451e+00  1.0883465609773628e+00 
 1.1025874313692561e+00  1.1170146416613151e+00  1.1316306300864181e+00  1.1464378667813961e+00 
 1.1614388542044931e+00  1.1766361275582875e+00  1.1920322552181473e+00  1.2076298391662907e+00 
 1.2234315154315292e+00  1.2394399545347610e+00  1.2556578619402960e+00  1.2720879785130863e+00 
 1.2887330809819397e+00  1.3055959824087868e+00  1.3226795326641052e+00  1.3399866189085494e+00 
 1.3575201660808864e+00  1.3752831373923209e+00  1.3932785348272816e+00  1.4115093996507657e+00 
 1.4299788129223197e+00  1.4486898960167454e+00  1.4676458111516202e+00  1.4868497619217182e+00 
 1.5063049938404278e+00  1.5260147948882479e+00  1.5459824960684665e+00  1.5662114719701090e+00 
 1.5867051413382494e+00  1.6074669676517874e+00  1.6285004597087882e+00  1.6498091722194659e+00 
 1.6713967064069539e+00  1.6932667106159107e+00  1.7154228809291001e+00  1.7378689617920386e+00 
 1.7606087466458167e+00  1.7836460785681969e+00  1.8069848509231057e+00  1.8306290080186185e+00 
 1.8545825457735610e+00  1.8788495123928250e+00  1.9034340090515272e+00  1.9283401905881157e+00 
 1.9535722662065504e+00  1.9791345001876646e+00  2.0050312126098424e+00  2.0312667800791195e+00 
 2.0578456364688442e+00  2.0847722736690009e+00  2.1120512423453679e+00  2.1396871527085772e+00 
 2.1676846752932559e+00  2.1960485417473588e+00  2.2247835456318250e+00  2.2538945432307034e+00 
 2.2833864543718740e+00  2.3132642632585152e+00  2.3435330193114390e+00  2.3741978380224622e+00 
 2.4052639018189317e+00  2.4367364609395694e+00  2.4686208343217739e+00  2.5009224105005354e+00 
 2.5336466485191091e+00  2.5667990788516062e+00  2.6003853043376637e+00  2.6344110011293194e+00 
 2.6688819196503180e+00  2.7038038855679347e+00  2.7391828007775283e+00  2.7750246443999727e+00 
 2.8113354737921474e+00  2.8481214255706435e+00  2.8853887166488659e+00  2.9231436452877055e+00 
 2.9613925921599642e+00  3.0001420214286978e+00  3.0393984818396822e+00  3.0791686078281590e+00 
 3.1194591206400792e+00  3.1602768294680010e+00  3.2016286326018677e+00  3.2435215185948296e+00 
 3.2859625674443356e+00  3.3289589517886418e+00  3.3725179381190449e+00  3.4166468880079095e+00 
 3.4613532593527978e+00  3.5066446076368720e+00  3.5525285872057895e+00  3.5990129525613077e+00 
 3.6461055596718071e+00  3.6938143672999750e+00  3.7421474383478528e+00  3.7911129412194833e+00 
 3.8407191512013963e+00  3.8909744518611444e+00  3.9418873364641533e+00  3.9934664094090975e+00 
 4.0457203876820689e+00  4.0986581023297637e+00  4.1522884999519620e+00  4.2066206442134950e+00 
 4.2616637173760630e+00  4.3174270218500395e+00  4.3739199817666039e+00  4.4311521445704374e+00 
 4.4891331826332745e+00  4.5478728948885490e+00  4.6073812084874364e+00  4.6676681804765714e+00 
 4.7287439994977074e+00  4.7906189875096290e+00  4.8533036015325752e+00  4.9168084354155122e+00 
 4.9811442216265149e+00  5.0463218330665764e+00  5.1123522849071614e+00  5.1792467364517885e+00 
 5.2470164930219942e+00  5.3156730078679164e+00  5.3852278841039860e+00  5.4556928766698318e+00 
 5.5270798943169117e+00  5.5994010016211160e+00  5.6726684210217106e+00  5.7468945348869562e+00 
 5.8220918876067644e+00  5.8982731877127188e+00  5.9754513100258571e+00  6.0536392978325440e+00 
 6.1328503650888102e+00  6.2130978986535537e+00  6.2943954605509438e+00  6.3767567902624380e+00 
 6.4601958070487822e+00  6.5447266123024104e+00  6.6303634919306118e+00  6.7171209187698446e+00 
 6.8050135550317465e+00  6.8940562547810398e+00  6.9842640664459115e+00  7.0756522353612370e+00 
 7.1682362063450746e+00  7.2620316263088815e+00  7.3570543469018714e+00  7.4533204271899880e+00 
 7.5508461363699260e+00  7.6496479565186535e+00  7.7497425853789332e+00  7.8511469391812794e+00 
 7.9538781555028386e+00  8.0579535961636761e+00  8.1633908501609742e+00  8.2702077366416109e+00 
 8.3784223079136471e+00  8.4880528524971623e+00  8.5991178982151375e+00  8.7116362153246421e+00 
 8.8256268196890719e+00  8.9411089759918774e+00  9.0581022009923284e+00  9.1766262668239094e+00 
 9.2967012043358395e+00  9.4183473064783509e+00  9.5415851317322335e+00  9.6664355075832766e+00 
 9.7929195340421540e+00  9.9210585872103767e+00  1.0050874322892923e+01  1.0182388680258086e+01 
 1.0315623885545284e+01  1.0450602455821322e+01  1.0587347202785857e+01  1.0725881236626556e+01 
 1.0866227969924878e+01  1.1008411121612793e+01  1.1152454720981344e+01  1.1298383111741662e+01 
 1.1446220956139108e+01  1.1595993239121254e+01  1.1747725272560398e+01  1.1901442699531326e+01 
 1.2057171498645063e+01  1.2214937988439308e+01  1.2374768831826323e+01  1.2536691040599072e+01 
 1.2700731979996219e+01  1.2866919373326951e+01  1.3035281306656294e+01  1.3205846233551693e+01 
 1.3378642979891772e+01  1.3553700748737896e+01  1.3731049125269674e+01  1.3910718081784852e+01 
 1.4092737982764707e+01  1.4277139590005723e+01  1.4463954067818428e+01  1.4653212988294200e+01 
 1.4844948336641060e+01  1.5039192516589230e+01  1.5235978355867429e+01  1.5435339111750878e+01 
 1.5637308476681811e+01  1.5841920583963612e+01  1.6049210013529404e+01  1.6259211797786158e+01 
 1.6471961427535231e+01  1.6687494857970417e+01  1.6905848514754485e+01  1.7127059300175073e+01 
 1.7351164599381452e+01  1.7578202286702570e+01  1.7808210732047964e+01  1.8041228807392340e+01 
 1.8277295893345038e+01  1.8516451885805438e+01  1.8758737202705490e+01  1.9004192790840406e+01 
 1.9252860132788797e+01  1.9504781253923291e+01  1.9759998729512965e+01  2.0018555691918639e+01 
 2.0280495837882345e+01  2.0545863435912196e+01  2.0814703333763855e+01  2.1087060966019937e+01 
 2.1362982361768548e+01  2.1642514152382230e+01  2.1925703579398942e+01  2.2212598502505870e+01 
 2.2503247407627850e+01  2.2797699415121627e+01  2.3096004288077292e+01  2.3398212440728365e+01 
 2.3704374946971928e+01  2.4014543549000241e+01  2.4328770666045269e+01  2.4647109403237678e+01 
 2.4969613560581752e+01  2.5296337642047650e+01  2.5627336864782791e+01  2.5962667168443616e+01 
 2.6302385224649573e+01  2.6646548446560711e+01  2.6995214998580728e+01  2.7348443806186687e+01 
 2.7706294565887831e+01  2.8068827755314274e+01  2.8436104643437890e+01  2.8808187300926921e+01 
 2.9185138610636095e+01  2.9567022278233900e+01  2.9953902842969111e+01  3.0345845688577970e+01 
 3.0742917054334253e+01  3.1145184046243823e+01  3.1552714648385763e+01  3.1965577734401798e+01 
 3.2383843079136113e+01  3.2807581370427471e+01  3.3236864221055662e+01  3.3671764180844157e+01 
 3.4112354748921334e+01  3.4558710386141733e+01  3.5010906527670443e+01  3.5469019595731687e+01 
 3.5933127012524302e+01  3.6403307213306348e+01  3.6879639659650849e+01  3.7362204852874925e+01 
 3.7851084347644814e+01  3.8346360765758689e+01  3.8848117810110040e+01  3.9356440278833553e+01 
 3.9871414079636345e+01  4.0393126244316406e+01  4.0921664943471306e+01  4.1457119501399177e+01 
 4.1999580411194742e+01  4.2549139350042857e+01  4.3105889194712276e+01  4.3669924037251704e+01 
 4.4241339200892092e+01  4.4820231256156084e+01  4.5406698037178849e+01  4.6000838658242245e+01 
 4.6602753530525320e+01  4.7212544379074117e+01  4.7830314259993393e+01  4.8456167577863404e+01 
 4.9090210103384415e+01  4.9732548991252365e+01  5.0383292798268108e+01  5.1042551501683867e+01 
 5.1710436517789617e+01  5.2387060720742731e+01  5.3072538461643909e+01  5.3766985587862884e+01 
 5.4470519462616920e+01  5.5183258984805171e+01  5.5905324609103339e+01  5.6636838366320525e+01 
 5.7377923884022778e+01  5.8128706407426428e+01  5.8889312820564896e+01  5.9659871667732290e+01 
 6.0440513175207791e+01  6.1231369273264178e+01  6.2032573618464326e+01  6.2844261616249511e+01 
 6.3666570443823282e+01  6.4499639073334649e+01  6.5343608295364788e+01  6.6198620742720962e+01 
 6.7064820914541770e+01  6.7942355200718026e+01  6.8831371906632455e+01  6.9732021278224423e+01 
 7.0644455527381353e+01  7.1568828857663078e+01  7.2505297490362480e+01  7.3454019690907373e+01 
 7.4415155795607703e+01  7.5388868238752750e+01  7.6375321580062931e+01  7.7374682532500842e+01 
 7.8387119990445939e+01  7.9412805058238376e+01  8.0451911079095794e+01  8.1504613664408907e+01 
 8.2571090723420184e+01  8.3651522493290898e+01  8.4746091569561699e+01  8.5854982937011783e+01 
 8.6978384000921267e+01  8.8116484618743868e+01  8.9269477132192776e+01  9.0437556399747038e+01 
 9.1620919829582959e+01  9.2819767412936756e+01  9.4034301757903364e+01  9.5264728123677784e+01 
 9.6511254455244384e+01  9.7774091418520044e+01  9.9053452435957212e+01  1.0034955372261287e+02 
 1.0166261432268929e+02  1.0299285614655311e+02  1.0434050400823865e+02  1.0570578566344207e+02 
 1.0708893184801262e+02  1.0849017631694768e+02  1.0990975588389725e+02  1.1134791046118704e+02 
 1.1280488310036358e+02  1.1428092003327059e+02  1.1577627071366290e+02  1.1729118785936451e+02 
  </PP_R>
  <PP_RAB>
 1.3000000000000013e-06  1.3170103275677530e-06  1.3342432330154754e-06  1.3517016287452059e-06 
 1.3693884652673746e-06  1.3873067316994510e-06  1.4054594562711086e-06  1.4238497068360053e-06 
 1.4424805913902575e-06  1.4613552585976978e-06  1.4804768983220109e-06  1.4998487421658160e-06 
 1.5194740640168320e-06  1.5393561806011623e-06  1.5594984520438307e-06  1.5799042824366516e-06 
 1.6005771204135297e-06  1.6215204597332856e-06  1.6427378398701124e-06  1.6642328466117520e-06 
 1.6860091126655045e-06  1.7080703182721622e-06  1.7304201918279799e-06  1.7530625105147842e-06 
 1.7760011009383242e-06  1.7992398397749768e-06  1.8227826544269166e-06  1.8466335236858567e-06 
 1.8707964784054629e-06  1.8952756021825965e-06  1.9200750320474382e-06  1.9451989591626601e-06 
 1.9706516295317417e-06  1.9964373447165568e-06  2.0225604625643419e-06  2.0490253979441905e-06 
 2.0758366234931702e-06  2.1029986703722122e-06  2.1305161290318871e-06  2.1583936499882038e-06 
 2.1866359446085533e-06  2.2152477859079473e-06  2.2442340093556633e-06  2.2735995136924549e-06 
 2.3033492617584472e-06  2.3334882813318700e-06  2.3640216659787706e-06  2.3949545759138181e-06 
 2.4262922388724176e-06  2.4580399509941976e-06  2.4902030777180679e-06  2.5227870546889970e-06 
 2.5557973886766459e-06  2.5892396585060262e-06  2.6231195160003346e-06  2.6574426869361258e-06 
 2.6922149720109796e-06  2.7274422478238356e-06  2.7631304678681494e-06  2.7992856635380516e-06 
 2.8359139451476623e-06  2.8730215029637521e-06  2.9106146082519116e-06  2.9486996143364156e-06 
 2.9872829576739283e-06  3.0263711589413095e-06  3.0659708241376081e-06  3.1060886457004933e-06 
 3.1467314036372936e-06  3.1879059666708330e-06  3.2296192934002645e-06  3.2718784334770879e-06 
 3.3146905287965550e-06  3.3580628147046735e-06  3.4020026212209912e-06  3.4465173742773907e-06 
 3.4916145969730873e-06  3.5373019108460533e-06  3.5835870371610724e-06  3.6304777982146571e-06 
 3.6779821186570341e-06  3.7261080268314038e-06  3.7748636561308195e-06  3.8242572463726556e-06 
 3.8742971451912300e-06  3.9249918094485437e-06  3.9763498066635156e-06  4.0283798164599100e-06 
 4.0810906320332186e-06  4.1344911616367337e-06  4.1885904300870532e-06  4.2433975802893075e-06 
 4.2989218747823281e-06  4.3551726973040363e-06  4.4121595543773222e-06  4.4698920769166640e-06 