  <PP_INFO>

############################################################
#    Opium Parameter File                                  #
############################################################
#-----------------------------------------------------------
#Command line   : /usr/local/bin/opium he he.log all ke rpt upf plot wp 
 
#Opium version  : 3.8 
#Compile Host   : vagvlan567.217.wlan.design.upenn.edu 
#Compile OS     : Darwin 14.1.0 i386 
#Compile Date   : Wed Mar 18 18:57:27 EDT 2015 
#-----------------------------------------------------------
#Execution Host : vagvlan567.215.wlan.design.upenn.edu 
#Execution Date : Wed Oct 14 12:13:51 2015
 
#-----------------------------------------------------------
############################################################
[Atom]
He
1
100   2.00   -

[Pseudo]
1  0.80
opt

[Optinfo]
7.0  10
conmax

[Configs]
2
#
100 1.80 -
#
100 1.60 -

[XC]
hf

[Grid]
2402 .0001 .0065  
############################################################
  </PP_INFO>



<PP_HEADER>
   0         Version Number
   He        Element
   NC        Norm - Conserving pseudopotential
    F      Nonlinear Core Correction
SLA  PZ   NOGX NOGC    PZ   Exchange-Correlation functional
 2          Z valence
 0          Total energy
 0.000000   0.000000     Suggested cutoff for wfc and rho
 0           Max angular momentum component
 2189           Number of points in mesh
 1  0     Number of Wavefuncitons, Number of Projectors
 Wavefunctions         nl  l   occ
                       S  0  2.000000
</PP_HEADER>
<PP_MESH>
  <PP_R>
 7.9370052598410010e-05  7.9887638271405363e-05  8.0408599209001272e-05  8.0932957421875102e-05 
 8.1460735064239101e-05  8.1991954434777422e-05  8.2526637977587211e-05  8.3064808283127986e-05 
 8.3606488089174924e-05  8.4151700281780685e-05  8.4700467896241228e-05  8.5252814118070189e-05 
 8.5808762283977316e-05  8.6368335882855597e-05  8.6931558556772542e-05  8.7498454101970200e-05 
 8.8069046469869389e-05  8.8643359768082823e-05  8.9221418261432642e-05  8.9803246372976024e-05 
 9.0388868685037534e-05  9.0978309940246667e-05  9.1571595042584455e-05  9.2168749058434395e-05 
 9.2769797217642818e-05  9.3374764914583527e-05  9.3983677709232061e-05  9.4596561328244208e-05 
 9.5213441666044406e-05  9.5834344785918326e-05  9.6459296921115508e-05  9.7088324475956279e-05 
 9.7721454026948736e-05  9.8358712323910275e-05  9.9000126291099046e-05  9.9645723028350257e-05 
 1.0029552981222242e-04  1.0094957409714867e-04  1.0160788351659713e-04  1.0227048588423907e-04 
 1.0293740919512273e-04  1.0360868162685757e-04  1.0428433154080329e-04  1.0496438748326968e-04 
 1.0564887818672106e-04  1.0633783257099187e-04  1.0703127974450694e-04  1.0772924900551288e-04 
 1.0843176984331443e-04  1.0913887193952186e-04  1.0985058516930354e-04  1.1056693960264968e-04 
 1.1128796550564128e-04  1.1201369334173038e-04  1.1274415377302561e-04  1.1347937766158925e-04 
 1.1421939607073976e-04  1.1496424026636482e-04  1.1571394171824289e-04  1.1646853210137142e-04 
 1.1722804329730678e-04  1.1799250739550954e-04  1.1876195669470198e-04  1.1953642370423106e-04 
 1.2031594114544355e-04  1.2110054195306686e-04  1.2189025927660226e-04  1.2268512648172373e-04 
 1.2348517715168934e-04  1.2429044508875848e-04  1.2510096431562172e-04  1.2591676907683651e-04 
 1.2673789384027583e-04  1.2756437329858287e-04  1.2839624237063742e-04  1.2923353620303198e-04 
 1.3007629017155510e-04  1.3092453988268775e-04  1.3177832117510592e-04  1.3263767012119674e-04 
 1.3350262302858052e-04  1.3437321644164672e-04  1.3524948714309606e-04  1.3613147215549656e-04 
 1.3701920874284568e-04  1.3791273441214678e-04  1.3881208691499182e-04  1.3971730424915829e-04 
 1.4062842466021277e-04  1.4154548664312863e-04  1.4246852894391081e-04  1.4339759056123359e-04 
 1.4433271074808899e-04  1.4527392901344353e-04  1.4622128512390944e-04  1.4717481910542276e-04 
 1.4813457124493660e-04  1.4910058209212111e-04  1.5007289246107879e-04  1.5105154343206684e-04 
 1.5203657635323489e-04  1.5302803284236987e-04  1.5402595478865644e-04  1.5503038435444477e-04 
 1.5604136397703397e-04  1.5705893637046290e-04  1.5808314452731714e-04  1.5911403172054310e-04 
 1.6015164150527862e-04  1.6119601772069116e-04  1.6224720449183088e-04  1.6330524623149581e-04 
 1.6437018764210631e-04  1.6544207371759590e-04  1.6652094974531017e-04  1.6760686130792238e-04 
 1.6869985428535699e-04  1.6979997485673046e-04  1.7090726950230015e-04  1.7202178500542970e-04 
 1.7314356845456489e-04  1.7427266724522335e-04  1.7540912908199690e-04  1.7655300198056724e-04 
 1.7770433426973444e-04  1.7886317459345905e-04  1.8002957191291710e-04  1.8120357550856884e-04 
 1.8238523498224083e-04  1.8357460025922160e-04  1.8477172159037106e-04  1.8597664955424348e-04 
 1.8718943505922463e-04  1.8841012934568246e-04  1.8963878398813234e-04  1.9087545089741518e-04 
 1.9212018232289254e-04  1.9337303085465178e-04  1.9463404942572993e-04  1.9590329131434917e-04 
 1.9718081014616812e-04  1.9846665989654746e-04  1.9976089489283041e-04  2.0106356981663812e-04 
 2.0237473970617986e-04  2.0369445995857853e-04  2.0502278633221111e-04  2.0635977494906445e-04 
 2.0770548229710655e-04  2.0905996523267302e-04  2.1042328098286938e-04  2.1179548714798883e-04 
 2.1317664170394604e-04  2.1456680300472662e-04  2.1596602978485172e-04  2.1737438116186173e-04 
 2.1879191663881127e-04  2.2021869610678528e-04  2.2165477984742853e-04  2.2310022853549267e-04 
 2.2455510324139978e-04  2.2601946543382266e-04  2.2749337698228173e-04  2.2897690015975919e-04 
 2.3047009764532993e-04  2.3197303252680987e-04  2.3348576830342131e-04  2.3500836888847585e-04 
 2.3654089861207471e-04  2.3808342222382664e-04  2.3963600489558396e-04  2.4119871222419483e-04 
 2.4277161023427722e-04  2.4435476538100539e-04  2.4594824455292003e-04  2.4755211507475312e-04 
 2.4916644471027283e-04  2.5079130166514647e-04  2.5242675458982198e-04  2.5407287258242872e-04 
 2.5572972519169684e-04  2.5739738241989548e-04  2.5907591472579061e-04  2.6076539302762188e-04 
 2.6246588870609881e-04  2.6417747360741678e-04  2.6590022004629251e-04  2.6763420080901952e-04 
 2.6937948915654229e-04  2.7113615882755403e-04  2.7290428404160878e-04  2.7468393950226072e-04 
 2.7647520040021713e-04  2.7827814241651762e-04  2.8009284172573058e-04  2.8191937499917179e-04 
 2.8375781940814376e-04  2.8560825262719626e-04  2.8747075283740798e-04  2.8934539872968993e-04 
 2.9123226950810989e-04  2.9313144489323897e-04  2.9504300512551968e-04  2.9696703096865622e-04 
 2.9890360371302656e-04  3.0085280517911739e-04  3.0281471772098073e-04  3.0478942422971258e-04 
 3.0677700813695779e-04  3.0877755341843124e-04  3.1079114459746897e-04  3.1281786674859776e-04 
 3.1485780550113008e-04  3.1691104704278158e-04  3.1897767812331289e-04  3.2105778605819458e-04 
 3.2315145873229633e-04  3.2525878460360001e-04  3.2737985270693722e-04  3.2951475265775084e-04 
 3.3166357465588131e-04  3.3382640948937780e-04  3.3600334853833369e-04  3.3819448377874790e-04 
 3.4039990778640943e-04  3.4261971374081190e-04  3.4485399542908584e-04  3.4710284724996621e-04 
 3.4936636421777594e-04  3.5164464196644406e-04  3.5393777675354432e-04  3.5624586546436255e-04 
 3.5856900561599014e-04  3.6090729536144412e-04  3.6326083349381397e-04  3.6562971945043604e-04 
 3.6801405331709423e-04  3.7041393583224920e-04  3.7282946839129410e-04  3.7526075305083895e-04 
 3.7770789253302234e-04  3.8017099022985128e-04  3.8265015020757029e-04  3.8514547721105614e-04 
 3.8765707666824734e-04  3.9018505469459351e-04  3.9272951809754271e-04  3.9529057438105213e-04 
 3.9786833175013074e-04  4.0046289911541090e-04  4.0307438609774970e-04  4.0570290303286065e-04 
 4.0834856097597525e-04  4.1101147170653513e-04  4.1369174773291480e-04  4.1638950229717507e-04 
 4.1910484937984755e-04  4.2183790370475051e-04  4.2458878074383562e-04  4.2735759672206744e-04 
 4.3014446862233178e-04  4.3294951419038246e-04  4.3577285193981054e-04  4.3861460115705739e-04 
 4.4147488190644904e-04  4.4435381503527303e-04  4.4725152217888229e-04  4.5016812576583468e-04 
 4.5310374902306569e-04  4.5605851598109451e-04  4.5903255147926471e-04  4.6202598117101848e-04 
 4.6503893152920558e-04  4.6807152985142686e-04  4.7112390426541260e-04  4.7419618373443573e-04 
 4.7728849806276088e-04  4.8040097790112848e-04  4.8353375475227502e-04  4.8668696097648730e-04 
 4.8986072979719897e-04  4.9305519530661360e-04  4.9627049247137460e-04  4.9950675713826543e-04 
 5.0276412603994969e-04  5.0604273680074797e-04  5.0934272794245271e-04  5.1266423889018056e-04 
 5.1600740997826300e-04  5.1937238245617604e-04  5.2275929849450724e-04  5.2616830119096305e-04 
 5.2959953457641467e-04  5.3305314362098286e-04  5.3652927424016367e-04  5.4002807330099322e-04 
 5.4354968862825083e-04  5.4709426901070990e-04  5.5066196420741696e-04  5.5425292495402676e-04 
 5.5786730296916351e-04  5.6150525096083643e-04  5.6516692263288934e-04  5.6885247269149522e-04 
 5.7256205685169217e-04  5.7629583184396285e-04  5.8005395542085601e-04  5.8383658636365198e-04 
 5.8764388448907052e-04  5.9147601065602398e-04  5.9533312677241350e-04  5.9921539580196710e-04 
 6.0312298177113096e-04  6.0705604977599130e-04  6.1101476598925868e-04  6.1499929766727979e-04 
 6.1900981315711294e-04  6.2304648190363195e-04  6.2710947445669392e-04  6.3119896247833718e-04 
 6.3531511875003933e-04  6.3945811718001534e-04  6.4362813281056499e-04  6.4782534182546907e-04 
 6.5204992155743283e-04  6.5630205049557831e-04  6.6058190829298567e-04  6.6488967577428364e-04 
 6.6922553494328896e-04  6.7358966899069719e-04  6.7798226230181920e-04  6.8240350046437810e-04 
 6.8685357027634174e-04  6.9133265975382396e-04  6.9584095813901895e-04  7.0037865590820674e-04 
 7.0494594477979043e-04  7.0954301772240696e-04  7.1417006896306993e-04  7.1882729399538328e-04 
 7.2351488958779739e-04  7.2823305379192329e-04  7.3298198595090063e-04  7.3776188670781934e-04 
 7.4257295801419753e-04  7.4741540313851365e-04  7.5228942667479506e-04  7.5719523455125928e-04 
 7.6213303403902162e-04  7.6710303376084209e-04  7.7210544369995106e-04  7.7714047520890982e-04 
 7.8220834101855135e-04  7.8730925524695739e-04  7.9244343340851545e-04  7.9761109242301460e-04 
 8.0281245062481749e-04  8.0804772777208207e-04  8.1331714505604653e-04  8.1862092511037485e-04 
 8.2395929202056352e-04  8.2933247133340829e-04  8.3474069006653478e-04  8.4018417671798866e-04 
 8.4566316127589083e-04  8.5117787522815465e-04  8.5672855157226265e-04  8.6231542482511909e-04 
 8.6793873103294702e-04  8.7359870778127321e-04  8.7929559420495411e-04  8.8502963099829177e-04 
 8.9080106042519044e-04  8.9661012632940521e-04  9.0245707414483216e-04  9.0834215090588710e-04 
 9.1426560525793865e-04  9.2022768746781425e-04  9.2622864943437430e-04  9.3226874469915443e-04 
 9.3834822845707822e-04  9.4446735756723856e-04  9.5062639056375168e-04  9.5682558766667521e-04 
 9.6306521079301242e-04  9.6934552356776503e-04  9.7566679133508560e-04  9.8202928116947392e-04 
 9.8843326188707554e-04  9.9487900405702506e-04  1.0013667800128914e-03  1.0078968638641710e-03 
 1.0144695315078792e-03  1.0210850606402013e-03  1.0277437307682274e-03  1.0344458232217609e-03 
 1.0411916211652051e-03  1.0479814096095261e-03  1.0548154754242962e-03  1.0616941073498126e-03 
 1.0686175960092970e-03  1.0755862339211766e-03  1.0826003155114368e-03  1.0896601371260719e-03 
 1.0967659970435913e-03  1.1039181954876378e-03  1.1111170346396555e-03  1.1183628186516733e-03 
 1.1256558536591398e-03  1.1329964477938728e-03  1.1403849111970633e-03  1.1478215560323903e-03 
 1.1553066964992045e-03  1.1628406488458037e-03  1.1704237313827958e-03  1.1780562644965454e-03 
 1.1857385706627124e-03  1.1934709744598748e-03  1.2012538025832447e-03  1.2090873838584645e-03 
 1.2169720492555126e-03  1.2249081319026709e-03  1.2328959671006161e-03  1.2409358923365689e-03 
 1.2490282472985711e-03  1.2571733738898192e-03  1.2653716162431277e-03  1.2736233207354523e-03 
 1.2819288360025362e-03  1.2902885129536352e-03  1.2987027047863438e-03  1.3071717670015187e-03 
 1.3156960574182985e-03  1.3242759361892210e-03  1.3329117658154406e-03  1.3416039111620438e-03 
 1.3503527394734644e-03  1.3591586203890015e-03  1.3680219259584296e-03  1.3769430306577325e-03 
 1.3859223114049061e-03  1.3949601475759024e-03  1.4040569210206394e-03  1.4132130160791530e-03 
 1.4224288195978164e-03  1.4317047209457042e-03  1.4410411120310248e-03  1.4504383873176912e-03 
 1.4598969438419825e-03  1.4694171812293187e-03  1.4789995017111454e-03  1.4886443101419288e-03 
 1.4983520140162594e-03  1.5081230234860704e-03  1.5179577513779663e-03  1.5278566132106597e-03 
 1.5378200272125411e-03  1.5478484143393284e-03  1.5579421982918750e-03  1.5681018055340493e-03 
 1.5783276653107735e-03  1.5886202096661393e-03  1.5989798734616823e-03  1.6094070943947342e-03 
 1.6199023130169326e-03  1.6304659727528251e-03  1.6410985199186070e-03  1.6518004037409779e-03 
 1.6625720763761209e-03  1.6734139929288076e-03  1.6843266114716247e-03  1.6953103930643296e-03 
 1.7063658017733277e-03  1.7174933046912835e-03  1.7286933719568459e-03  1.7399664767745291e-03 
 1.7513130954346823e-03  1.7627337073336381e-03  1.7742287949939416e-03  1.7857988440847631e-03 
 1.7974443434423913e-03  1.8091657850909126e-03  1.8209636642629757e-03  1.8328384794207321e-03 
 1.8447907322768887e-03  1.8568209278159065e-03  1.8689295743153367e-03  1.8811171833672952e-03 
 1.8933842699000772e-03  1.9057313521999139e-03  1.9181589519328705e-03  1.9306675941668794e-03 
 1.9432578073939424e-03  1.9559301235524346e-03  1.9686850780496054e-03  1.9815232097841733e-03 
 1.9944450611691198e-03  2.0074511781545822e-03  2.0205421102509440e-03  2.0337184105520289e-03 
 2.0469806357584865e-03  2.0603293462013042e-03  2.0737651058654839e-03  2.0872884824138702e-03 
 2.1009000472111340e-03  2.1146003753479128e-03  2.1283900456651084e-03  2.1422696407783427e-03 
 2.1562397471025741e-03  2.1703009548768751e-03  2.1844538581893597e-03  2.1986990550023058e-03 
 2.2130371471773907e-03  2.2274687405011485e-03  2.2419944447105368e-03  2.2566148735187271e-03 
 2.2713306446410031e-03  2.2861423798208919e-03  2.3010507048564022e-03  2.3160562496264865e-03 
 2.3311596481176435e-03  2.3463615384507058e-03  2.3616625629078020e-03  2.3770633679594910e-03 
 2.3925646042920771e-03  2.4081669268351019e-03  2.4238709947890153e-03  2.4396774716530182e-03 
 2.4555870252531181e-03  2.4716003277703122e-03  2.4877180557690230e-03  2.5039408902256472e-03 
 2.5202695165573628e-03  2.5367046246510521e-03  2.5532469088924859e-03  2.5698970681956278e-03 
 2.5866558060321865e-03  2.6035238304613299e-03  2.6205018541595980e-03  2.6375905944510183e-03 
 2.6547907733374099e-03  2.6721031175288897e-03  2.6895283584745747e-03  2.7070672323934873e-03 
 2.7247204803056597e-03  2.7424888480634441e-03  2.7603730863830145e-03  2.7783739508761098e-03 
 2.7964922020819231e-03  2.8147286054992721e-03  2.8330839316189054e-03  2.8515589559560905e-03 
 2.8701544590833449e-03  2.8888712266634518e-03  2.9077100494826176e-03  2.9266717234839117e-03 
 2.9457570498008815e-03  2.9649668347914025e-03  2.9843018900717485e-03  3.0037630325508808e-03 
 3.0233510844649646e-03  3.0430668734121070e-03  3.0629112323873266e-03  3.0828849998177335e-03 
 3.1029890195979838e-03  3.1232241411258935e-03  3.1435912193383676e-03  3.1640911147474793e-03 
 3.1847246934768704e-03  3.2054928272983005e-03  3.2263963936685239e-03  3.2474362757663206e-03 
 3.2686133625298426e-03  3.2899285486941553e-03  3.3113827348290451e-03  3.3329768273770675e-03 
 3.3547117386918449e-03  3.3765883870766136e-03  3.3986076968230221e-03  3.4207705982501830e-03 
 3.4430780277439777e-03  3.4655309277966243e-03  3.4881302470464804e-03  3.5108769403181589e-03 
 3.5337719686628216e-03  3.5568162993988343e-03  3.5800109061525859e-03  3.6033567688996751e-03 
 3.6268548740062624e-03  3.6505062142707973e-03  3.6743117889659147e-03  3.6982726038806897e-03 
 3.7223896713631166e-03  3.7466640103628840e-03  3.7710966464744259e-03  3.7956886119802527e-03 
 3.8204409458945645e-03  3.8453546940071521e-03  3.8704309089275819e-03  3.8956706501296549e-03 
 3.9210749839962049e-03  3.9466449838641022e-03  3.9723817300696606e-03  3.9982863099942197e-03 
 4.0243598181101507e-03  4.0506033560270350e-03  4.0770180325382672e-03  4.1036049636678498e-03 
 4.1303652727175798e-03  4.1573000903144973e-03  4.1844105544586513e-03  4.2116978105711852e-03 
 4.2391630115427275e-03  4.2668073177821071e-03  4.2946318972653733e-03  4.3226379255851483e-03 
 4.3508265860002955e-03  4.3791990694859104e-03  4.4077565747836405e-03  4.4365003084523326e-03 
 4.4654314849190144e-03  4.4945513265301877e-03  4.5238610636034954e-03  4.5533619344796886e-03 
 4.5830551855749512e-03  4.6129420714335588e-03  4.6430238547808846e-03  4.6733018065767502e-03 
 4.7037772060691220e-03  4.7344513408481628e-03  4.7653255069006299e-03  4.7964010086646311e-03 
 4.8276791590847390e-03  4.8591612796674627e-03  4.8908487005370777e-03  4.9227427604918309e-03 
 4.9548448070604999e-03  4.9871561965593274e-03  5.0196782941493295e-03  5.0524124738939597e-03 
 5.0853601188171858e-03  5.1185226209619072e-03  5.1519013814487723e-03  5.1854978105353756e-03 
 5.2193133276758463e-03  5.2533493615808113e-03  5.2876073502777683e-03  5.3220887411718340e-03 
 5.3567949911069047e-03  5.3917275664272010e-03  5.4268879430392275e-03  5.4622776064741268e-03 
 5.4978980519504433e-03  5.5337507844372960e-03  5.5698373187179672e-03  5.6061591794538974e-03 
 5.6427179012491111e-03  5.6795150287150325e-03  5.7165521165357756e-03  5.7538307295338107e-03 
 5.7913524427360826e-03  5.8291188414405547e-03  5.8671315212831905e-03  5.9053920883053680e-03 
 5.9439021590217351e-03  5.9826633604885097e-03  6.0216773303722179e-03  6.0609457170188912e-03 
 6.1004701795237069e-03  6.1402523878010861e-03  6.1802940226552451e-03  6.2205967758512141e-03 
 6.2611623501863103e-03  6.3019924595620830e-03  6.3430888290567341e-03  6.3844531949979752e-03 
 6.4260873050364280e-03  6.4679929182194333e-03  6.5101718050653819e-03  6.5526257476385191e-03 
 6.5953565396242317e-03  6.6383659864048383e-03  6.6816559051358637e-03  6.7252281248228133e-03 
 6.7690844863984518e-03  6.8132268428005779e-03  6.8576570590503164e-03  6.9023770123309135e-03 
 6.9473885920670478e-03  6.9926937000046588e-03  7.0382942502912960e-03  7.0841921695569922e-03 
 7.1303893969956707e-03  7.1768878844470502e-03  7.2236895964791483e-03  7.2707965104712603e-03 
 7.3182106166975102e-03  7.3659339184109392e-03  7.4139684319281434e-03  7.4623161867144652e-03 
 7.5109792254697350e-03  7.5599596042145801e-03  7.6092593923772879e-03  7.6588806728812419e-03 
 7.7088255422329260e-03  7.7590961106104982e-03  7.8096945019529521e-03  7.8606228540498476e-03 
 7.9118833186316365e-03  7.9634780614605723e-03  8.0154092624222240e-03  8.0676791156175411e-03 
 8.1202898294556042e-03  8.1732436267468976e-03  8.2265427447972377e-03  8.2801894355022856e-03 
 8.3341859654427076e-03  8.3885346159799264e-03  8.4432376833525093e-03  8.4982974787731896e-03 
 8.5537163285265179e-03  8.6094965740671370e-03  8.6656405721187192e-03  8.7221506947735353e-03 
 8.7790293295926733e-03  8.8362788797069144e-03  8.8939017639182664e-03  8.9519004168021610e-03 
 9.0102772888103165e-03  9.0690348463742451e-03  9.1281755720094993e-03  9.1877019644205377e-03 
 9.2476165386062934e-03  9.3079218259664379e-03  9.3686203744083336e-03  9.4297147484546807e-03 
 9.4912075293518711e-03  9.5531013151790457e-03  9.6153987209578618e-03  9.6781023787629802e-03 
 9.7412149378332726e-03  9.8047390646837460e-03  9.8686774432182114e-03  9.9330327748426723e-03 
 9.9978077785794622e-03  1.0063005191182124e-02  1.0128627767251050e-02  1.0194678279349821e-02 
 1.0261159518122408e-02  1.0328074292411041e-02  1.0395425429374883e-02  1.0463215774609493e-02 
 1.0531448192267040e-02  1.0600125565177320e-02  1.0669250794969555e-02  1.0738826802194986e-02 
 1.0808856526450269e-02  1.0879342926501669e-02  1.0950288980410077e-02  1.1021697685656822e-02 
 1.1093572059270321e-02  1.1165915137953555e-02  1.1238729978212358e-02  1.1312019656484561e-02 
 1.1385787269269986e-02  1.1460035933261224e-02  1.1534768785475387e-02  1.1609988983386593e-02 
 1.1685699705059397e-02  1.1761904149283051e-02  1.1838605535706660e-02  1.1915807104975208e-02 
 1.1993512118866482e-02  1.2071723860428879e-02  1.2150445634120113e-02  1.2229680765946833e-02 
 1.2309432603605145e-02  1.2389704516622056e-02  1.2470499896497829e-02  1.2551822156849282e-02 
 1.2633674733554014e-02  1.2716061084895567e-02  1.2798984691709552e-02  1.2882449057530667e-02 
 1.2966457708740798e-02  1.3051014194717953e-02  1.3136122087986245e-02  1.3221784984366823e-02 
 1.3308006503129802e-02  1.3394790287147178e-02  1.3482140003046731e-02  1.3570059341366956e-02 
 1.3658552016712974e-02  1.3747621767913481e-02  1.3837272358178715e-02  1.3927507575259453e-02 
 1.4018331231607038e-02  1.4109747164534460e-02  1.4201759236378484e-02  1.4294371334662834e-02 
 1.4387587372262452e-02  1.4481411287568767e-02  1.4575847044656171e-02  1.4670898633449446e-02 
 1.4766570069892361e-02  1.4862865396117336e-02  1.4959788680616228e-02  1.5057344018412227e-02 
 1.5155535531232864e-02  1.5254367367684166e-02  1.5353843703425921e-02  1.5453968741348112e-02 
 1.5554746711748488e-02  1.5656181872511287e-02  1.5758278509287144e-02  1.5861040935674146e-02 
 1.5964473493400095e-02  1.6068580552505943e-02  1.6173366511530438e-02  1.6278835797695904e-02 
 1.6384992867095390e-02  1.6491842204880869e-02  1.6599388325452751e-02  1.6707635772650633e-02 
 1.6816589119945262e-02  1.6926252970631769e-02  1.7036631958024157e-02  1.7147730745651058e-02 
 1.7259554027452786e-02  1.7372106527979624e-02  1.7485393002591464e-02  1.7599418237658711e-02 
 1.7714187050764506e-02  1.7829704290908278e-02  1.7945974838710608e-02  1.8063003606619433e-02 
 1.8180795539117622e-02  1.8299355612931816e-02  1.8418688837242785e-02  1.8538800253897005e-02 
 1.8659694937619702e-02  1.8781377996229243e-02  1.8903854570852956e-02  1.9027129836144338e-02 
 1.9151209000501688e-02  1.9276097306288154e-02  1.9401800030053235e-02  1.9528322482755708e-02 
 1.9655670009988021e-02  1.9783847992202140e-02  1.9912861844936888e-02  2.0042717019046731e-02 
 2.0173419000932093e-02  2.0304973312771146e-02  2.0437385512753158e-02  2.0570661195313238e-02 
 2.0704805991368817e-02  2.0839825568557482e-02  2.0975725631476455e-02  2.1112511921923614e-02 
 2.1250190219140073e-02  2.1388766340054370e-02  2.1528246139528234e-02  2.1668635510603933e-02 
 2.1809940384753281e-02  2.1952166732128232e-02  2.2095320561813122e-02  2.2239407922078545e-02 
 2.2384434900636907e-02  2.2530407624899627e-02  2.2677332262236023e-02  2.2825215020233870e-02 
 2.2974062146961721e-02  2.3123879931232771e-02  2.3274674702870722e-02  2.3426452832977104e-02 
 2.3579220734200490e-02  2.3732984861007434e-02  2.3887751709955163e-02  2.4043527819966073e-02 
 2.4200319772603979e-02  2.4358134192352207e-02  2.4516977746893466e-02  2.4676857147391564e-02 
 2.4837779148774958e-02  2.4999750550022140e-02  2.5162778194448909e-02  2.5326868969997491e-02 
 2.5492029809527569e-02  2.5658267691109172e-02  2.5825589638317558e-02  2.5994002720529836e-02 
 2.6163514053223803e-02  2.6334130798278482e-02  2.6505860164276737e-02  2.6678709406809820e-02 
 2.6852685828783942e-02  2.7027796780728815e-02  2.7204049661108207e-02  2.7381451916632528e-02 
 2.7560011042573464e-02  2.7739734583080652e-02  2.7920630131500413e-02  2.8102705330696573e-02 
 2.8285967873373383e-02  2.8470425502400535e-02  2.8656086011140294e-02  2.8842957243776772e-02 
 2.9031047095647369e-02  2.9220363513576261e-02  2.9410914496210284e-02  2.9602708094356809e-02 
 2.9795752411323883e-02  2.9990055603262615e-02  3.0185625879511766e-02  3.0382471502944604e-02 
 3.0580600790317998e-02  3.0780022112623814e-02  3.0980743895442583e-02  3.1182774619299487e-02 
 3.1386122820022663e-02  3.1590797089103839e-02  3.1796806074061337e-02  3.2004158478805403e-02 
 3.2212863064005996e-02  3.2422928647462886e-02  3.2634364104478238e-02  3.2847178368231519e-02 
 3.3061380430157050e-02  3.3276979340323816e-02  3.3493984207817844e-02  3.3712404201127061e-02 
 3.3932248548528679e-02  3.4153526538479077e-02  3.4376247520006245e-02  3.4600420903104792e-02 
 3.4826056159133492e-02  3.5053162821215483e-02  3.5281750484641015e-02  3.5511828807272876e-02 
 3.5743407509954424e-02  3.5976496376920290e-02  3.6211105256209783e-02  3.6447244060082942e-02 
 3.6684922765439401e-02  3.6924151414239749e-02  3.7164940113930019e-02  3.7407299037868581e-02 
 3.7651238425756038e-02  3.7896768584067805e-02  3.8143899886489599e-02  3.8392642774355716e-02 
 3.8643007757090155e-02  3.8895005412650688e-02  3.9148646387975751e-02  3.9403941399434282e-02 
 3.9660901233278485e-02  3.9919536746099563e-02  4.0179858865286418e-02  4.0441878589487300e-02 
 4.0705606989074543e-02  4.0971055206612247e-02  4.1238234457327133e-02  4.1507156029582215e-02 
 4.1777831285353964e-02  4.2050271660712200e-02  4.2324488666303305e-02  4.2600493887836557e-02 
 4.2878298986573624e-02  4.3157915699821255e-02  4.3439355841427177e-02  4.3722631302279234e-02 
 4.4007754050807799e-02  4.4294736133491393e-02  4.4583589675365715e-02  4.4874326880535872e-02 
 4.5166960032692029e-02  4.5461501495628401e-02  4.5757963713765601e-02  4.6056359212676458e-02 
 4.6356700599615219e-02  4.6659000564050090e-02  4.6963271878199569e-02  4.7269527397571939e-02 
 4.7577780061508458e-02  4.7888042893730033e-02  4.8200329002887468e-02  4.8514651583115333e-02 
 4.8831023914589405e-02  4.9149459364087746e-02  4.9469971385555471e-02  4.9792573520673164e-02 
 5.0117279399429018e-02  5.0444102740694712e-02  5.0773057352805032e-02  5.1104157134141279e-02 
 5.1437416073718469e-02  5.1772848251776360e-02  5.2110467840374430e-02  5.2450289103990425e-02 
 5.2792326400123324e-02  5.3136594179899778e-02  5.3483106988684685e-02  5.3831879466695765e-02 
 5.4182926349622101e-02  5.4536262469246706e-02  5.4891902754073206e-02  5.5249862229956537e-02 
 5.5610156020737794e-02  5.5972799348883238e-02  5.6337807536127438e-02  5.6705196004120585e-02 
 5.7074980275080116e-02  5.7447175972446474e-02  5.7821798821543258e-02  5.8198864650241551e-02 
 5.8578389389628761e-02  5.8960389074681492e-02  5.9344879844943306e-02  5.9731877945206437e-02 
 6.0121399726198191e-02  6.0513461645271764e-02  6.0908080267101553e-02  6.1305272264383037e-02 
 6.1705054418537186e-02  6.2107443620419471e-02  6.2512456871033545e-02  6.2920111282249475e-02 
 6.3330424077526801e-02  6.3743412592642143e-02  6.4159094276421691e-02  6.4577486691478447e-02 
 6.4998607514954163e-02  6.5422474539266334e-02  6.5849105672859676e-02  6.6278518940963121e-02 
 6.6710732486351093e-02  6.7145764570110206e-02  6.7583633572410706e-02  6.8024357993283074e-02 
 6.8467956453399648e-02  6.8914447694861353e-02  6.9363850581989558e-02  6.9816184102123105e-02 
 7.0271467366420509e-02  7.0729719610667402e-02  7.1190960196089267e-02  7.1655208610169469e-02 
 7.2122484467472547e-02  7.2592807510472979e-02  7.3066197610389308e-02  7.3542674768023730e-02 
 7.4022259114606914e-02  7.4504970912648905e-02  7.4990830556794966e-02  7.5479858574687350e-02 
 7.5972075627832550e-02  7.6467502512474278e-02  7.6966160160472114e-02  7.7468069640185863e-02 
 7.7973252157365711e-02  7.8481729056048152e-02  7.8993521819457790e-02  7.9508652070915009e-02 
 8.0027141574749577e-02  8.0549012237220149e-02  8.1074286107439830e-02  8.1602985378307805e-02 
 8.2135132387446894e-02  8.2670749618147479e-02  8.3209859700317065e-02  8.3752485411436914e-02 
 8.4298649677524040e-02  8.4848375574099910e-02  8.5401686327165452e-02  8.5958605314182271e-02 
 8.6519156065060429e-02  8.7083362263152525e-02  8.7651247746254365e-02  8.8222836507612076e-02 
 8.8798152696935861e-02  8.9377220621420311e-02  8.9960064746771345e-02  9.0546709698239983e-02 
 9.1137180261662676e-02  9.1731501384508585e-02  9.2329698176933553e-02  9.2931795912841106e-02 
 9.3537820030950014e-02  9.4147796135869474e-02  9.4761749999180675e-02  9.5379707560525676e-02 
 9.6001694928703349e-02  9.6627738382772527e-02  9.7257864373162278e-02  9.7892099522789433e-02 
 9.8530470628183403e-02  9.9173004660618361e-02  9.9819728767252758e-02  1.0047067027227628e-01 
 1.0112585667806437e-01  1.0178531566634012e-01  1.0244907509934391e-01  1.0311716302101048e-01 
 1.0378960765815394e-01  1.0446643742166030e-01  1.0514768090768760e-01  1.0583336689887453e-01 
 1.0652352436555622e-01  1.0721818246698830e-01  1.0791737055257891e-01  1.0862111816312865e-01 
 1.0932945503207876e-01  1.1004241108676734e-01  1.1076001644969373e-01  1.1148230143979126e-01 
 1.1220929657370823e-01  1.1294103256709719e-01  1.1367754033591268e-01  1.1441885099771752e-01 
 1.1516499587299744e-01  1.1591600648648442e-01  1.1667191456848858e-01  1.1743275205623893e-01 
 1.1819855109523233e-01  1.1896934404059217e-01  1.1974516345843506e-01  1.2052604212724681e-01 
 1.2131201303926734e-01  1.2210310940188460e-01  1.2289936463903757e-01  1.2370081239262851e-01 
 1.2450748652394419e-01  1.2531942111508668e-01  1.2613665047041323e-01  1.2695920911798564e-01 
 1.2778713181102916e-01  1.2862045352940074e-01  1.2945920948106693e-01  1.3030343510359144e-01 
 1.3115316606563240e-01  1.3200843826844952e-01  1.3286928784742033e-01  1.3373575117356773e-01 
 1.3460786485509613e-01  1.3548566573893830e-01  1.3636919091231217e-01  1.3725847770428773e-01 
 1.3815356368736426e-01  1.3905448667905765e-01  1.3996128474349834e-01  1.4087399619303945e-01 
 1.4179265958987550e-01  1.4271731374767160e-01  1.4364799773320355e-01  1.4458475086800815e-01 
 1.4552761273004469e-01  1.4647662315536708e-01  1.4743182223980697e-01  1.4839325034066791e-01 
 1.4936094807842992e-01  1.5033495633846650e-01  1.5131531627277151e-01  1.5230206930169801e-01 
 1.5329525711570829e-01  1.5429492167713518e-01  1.5530110522195514e-01  1.5631385026157263e-01 
 1.5733319958461620e-01  1.5835919625874637e-01  1.5939188363247525e-01  1.6043130533699804e-01 