  <PP_INFO>

############################################################
#    Opium Parameter File                                  #
############################################################
#-----------------------------------------------------------
#Command line   : /usr/local/bin/opium f f.log all ke upf rpt plot wp 
 
#Opium version  : 3.8 
#Compile Host   : vagvlan567.217.wlan.design.upenn.edu 
#Compile OS     : Darwin 14.1.0 i386 
#Compile Date   : Wed Mar 18 18:57:27 EDT 2015 
#-----------------------------------------------------------
#Execution Host : vagvlan567.0951.wlan.wireless-pennnet.upenn.edu 
#Execution Date : Tue Oct 13 17:25:39 2015
 
#-----------------------------------------------------------
############################################################
[Atom]
F  
3
100   2.00   -
200   2.00   -
210   5.00   -

[Pseudo]
2  1.14 1.63
opt

[Optinfo]
7.07  10
7.07  10
conmax

[Configs]
2
#
200  2.00  -
210  5.20  -
#
200  2.00  -
210  5.40  -

[XC]
gga
############################################################
  </PP_INFO>



<PP_HEADER>
   0         Version Number
   F        Element
   NC        Norm - Conserving pseudopotential
    F      Nonlinear Core Correction
SLA  PW   PBE  PBE     PBE  Exchange-Correlation functional
 7          Z valence
 0          Total energy
 0.000000   0.000000     Suggested cutoff for wfc and rho
 1           Max angular momentum component
 1133           Number of points in mesh
 2  1     Number of Wavefuncitons, Number of Projectors
 Wavefunctions         nl  l   occ
                       S  0  2.000000
                       P  1  5.000000
</PP_HEADER>
<PP_MESH>
  <PP_R>
 4.8074985676913592e-05  4.8704040487820724e-05  4.9341326397490627e-05  4.9986951108758841e-05 
 5.0641023733738213e-05  5.1303654812259164e-05  5.1974956330551005e-05  5.2655041740168128e-05 
 5.3344025977163444e-05  5.4042025481512837e-05  5.4749158216793847e-05  5.5465543690121798e-05 
 5.6191302972346739e-05  5.6926558718514735e-05  5.7671435188596941e-05  5.8426058268489554e-05 
 5.9190555491289205e-05  5.9965056058846156e-05  6.0749690863599670e-05  6.1544592510699269e-05 
 6.2349895340415274e-05  6.3165735450842583e-05  6.3992250720901648e-05  6.4829580833640339e-05 
 6.5677867299840549e-05  6.6537253481934109e-05  6.7407884618231207e-05  6.8289907847466077e-05 
 6.9183472233663745e-05  7.0088728791332279e-05  7.1005830510984490e-05  7.1934932384993790e-05 
 7.2876191433788334e-05  7.3829766732387515e-05  7.4795819437286449e-05  7.5774512813691559e-05 
 7.6766012263112878e-05  7.7770485351317183e-05  7.8788101836647139e-05  7.9819033698710803e-05 
 8.0863455167446568e-05  8.1921542752568533e-05  8.2993475273396820e-05  8.4079433889078819e-05 
 8.5179602129205239e-05  8.6294165924827207e-05  8.7423313639878913e-05  8.8567236103011729e-05 
 8.9726126639844527e-05  9.0900181105636388e-05  9.2089597918386263e-05  9.3294578092366516e-05 
 9.4515325272094468e-05  9.5752045766749034e-05  9.7004948585037310e-05  9.8274245470517625e-05 
 9.9560150937384663e-05  1.0086288230672292e-04  1.0218265974323441e-04  1.0351970629244723e-04 
 1.0487424791841029e-04  1.0624651354188241e-04  1.0763673507902010e-04  1.0904514748057198e-04 
 1.1047198877158610e-04  1.1191750009163661e-04  1.1338192573557709e-04  1.1486551319482693e-04 
 1.1636851319919765e-04  1.1789117975926735e-04  1.1943377020930876e-04  1.2099654525077947e-04 
 1.2257976899638105e-04  1.2418370901469473e-04  1.2580863637540115e-04  1.2745482569509174e-04 
 1.2912255518367959e-04  1.3081210669141764e-04  1.3252376575653216e-04  1.3425782165347880e-04 
 1.3601456744183145e-04  1.3779430001580964e-04  1.3959732015445426e-04  1.4142393257246007e-04 
 1.4327444597167328e-04  1.4514917309326291e-04  1.4704843077057421e-04  1.4897253998267523e-04 
 1.5092182590860237e-04  1.5289661798231665e-04  1.5489724994837865e-04  1.5692405991835239e-04 
 1.5897739042794676e-04  1.6105758849490500e-04  1.6316500567765155e-04  1.6529999813470612e-04 
 1.6746292668487559e-04  1.6965415686823261e-04  1.7187405900789365e-04  1.7412300827260394e-04 
 1.7640138474014189e-04  1.7870957346155329e-04  1.8104796452622578e-04  1.8341695312781503e-04 
 1.8581693963103281e-04  1.8824832963931052e-04  1.9071153406334648e-04  1.9320696919055108e-04 
 1.9573505675540018e-04  1.9829622401070930e-04  2.0089090379984040e-04  2.0351953462985348e-04 
 2.0618256074561518e-04  2.0888043220487732e-04  2.1161360495433791e-04  2.1438254090669644e-04 
 2.1718770801871942e-04  2.2002958037032532e-04  2.2290863824470545e-04  2.2582536820949309e-04 
 2.2878026319899433e-04  2.3177382259749560e-04  2.3480655232365974e-04  2.3787896491602888e-04 
 2.4099157961964381e-04  2.4414492247379772e-04  2.4733952640093826e-04  2.5057593129673250e-04 
 2.5385468412131084e-04  2.5717633899170441e-04  2.6054145727549220e-04  2.6395060768567337e-04 
 2.6740436637678162e-04  2.7090331704225559e-04  2.7444805101308584e-04  2.7803916735775016e-04 
 2.8167727298345808e-04  2.8536298273871934e-04  2.8909691951725495e-04  2.9287971436326788e-04 
 2.9671200657809004e-04  3.0059444382822710e-04  3.0452768225481505e-04  3.0851238658450935e-04 
 3.1254923024182584e-04  3.1663889546295053e-04  3.2078207341103965e-04  3.2497946429302767e-04 
 3.2923177747796377e-04  3.3353973161689705e-04  3.3790405476433080e-04  3.4232548450126369e-04 
 3.4680476805984514e-04  3.5134266244965756e-04  3.5593993458565344e-04  3.6059736141776615e-04 
 3.6531573006221474e-04  3.7009583793453065e-04  3.7493849288432136e-04  3.7984451333179944e-04 
 3.8481472840609724e-04  3.8984997808539198e-04  3.9495111333886384e-04  4.0011899627051176e-04 
 4.0535450026485132e-04  4.1065851013451856e-04  4.1603192226980558e-04  4.2147564479015235e-04 
 4.2699059769762157e-04  4.3257771303238088e-04  4.3823793503021912e-04  4.4397222028212620e-04 
 4.4978153789595771e-04  4.5566686966021762e-04  4.6162921020998101e-04  4.6766956719499202e-04 
 4.7378896144995779e-04  4.7998842716707221e-04  4.8626901207079673e-04  4.9263177759492844e-04 
 4.9907779906198510e-04  5.0560816586493653e-04  5.1222398165131559e-04  5.1892636450973637e-04 
 5.2571644715885418e-04  5.3259537713879780e-04  5.3956431700510649e-04  5.4662444452520473e-04 
 5.5377695287744640e-04  5.6102305085276689e-04  5.6836396305897079e-04  5.7580093012769341e-04 
 5.8333520892406895e-04  5.9096807275914689e-04  5.9870081160508226e-04  6.0653473231314485e-04 
 6.1447115883457972e-04  6.2251143244435828e-04  6.3065691196785741e-04  6.3890897401050364e-04 
 6.4726901319042283e-04  6.5573844237413396e-04  6.6431869291532733e-04  6.7301121489676602e-04 
 6.8181747737535423e-04  6.9073896863041100e-04  6.9977719641519125e-04  7.0893368821170304e-04 
 7.1820999148885329e-04  7.2760767396397525e-04  7.3712832386777307e-04  7.4677355021274131e-04 
 7.5654498306508859e-04  7.6644427382022433e-04  7.7647309548184722e-04  7.8663314294468746e-04 
 7.9692613328094845e-04  8.0735380603049519e-04  8.1791792349484118e-04  8.2862027103498164e-04 
 8.3946265737312340e-04  8.5044691489836359e-04  8.6157489997636756e-04  8.7284849326309992e-04 
 8.8426960002265659e-04  8.9584015044926455e-04  9.0756209999348441e-04  9.1943742969268979e-04 
 9.3146814650586253e-04  9.4365628365277886e-04  9.5600390095762586e-04  9.6851308519711645e-04 
 9.8118595045316027e-04  9.9402463847014788e-04  1.0070313190169119e-03  1.0202081902534216e-03 
 1.0335574791022787e-03  1.0470814416250708e-03  1.0607823634036524e-03  1.0746625599264139e-03 
 1.0887243769796039e-03  1.1029701910437737e-03  1.1174024096954048e-03  1.1320234720138000e-03 
 1.1468358489932912e-03  1.1618420439608434e-03  1.1770445929991204e-03  1.1924460653750944e-03 
 1.2080490639742537e-03  1.2238562257404983e-03  1.2398702221217894e-03  1.2560937595216301e-03 
 1.2725295797564543e-03  1.2891804605190012e-03  1.3060492158477499e-03  1.3231386966025003e-03 
 1.3404517909461745e-03  1.3579914248329238e-03  1.3757605625026206e-03  1.3937622069818249e-03 
 1.4119994005912970e-03  1.4304752254601641e-03  1.4491928040468031e-03  1.4681552996665466e-03 
 1.4873659170262842e-03  1.5068279027660738e-03  1.5265445460078272e-03  1.5465191789111796e-03 
 1.5667551772366331e-03  1.5872559609160686e-03  1.6080249946307218e-03  1.6290657883967223e-03 
 1.6503818981582962e-03  1.6719769263887274e-03  1.6938545226991850e-03  1.7160183844555166e-03 
 1.7384722574031110e-03  1.7612199362999398e-03  1.7842652655578760e-03  1.8076121398924153e-03 
 1.8312645049808880e-03  1.8552263581292912e-03  1.8795017489478345e-03  1.9040947800353463e-03 
 1.9290096076726134e-03  1.9542504425248070e-03  1.9798215503530922e-03  2.0057272527355540e-03 
 2.0319719277975528e-03  2.0585600109516390e-03  2.0854959956471495e-03  2.1127844341296050e-03 
 2.1404299382100605e-03  2.1684371800445037e-03  2.1968108929234639e-03  2.2255558720719521e-03 
 2.2546769754598580e-03  2.2841791246229659e-03  2.3140673054947020e-03  2.3443465692487720e-03 
 2.3750220331528156e-03  2.4060988814332443e-03  2.4375823661513829e-03  2.4694778080910835e-03 
 2.5017905976579486e-03  2.5345261957903202e-03  2.5676901348821979e-03  2.6012880197182216e-03 
 2.6353255284208951e-03  2.6698084134102011e-03  2.7047425023757781e-03  2.7401336992618035e-03 
 2.7759879852647870e-03  2.8123114198444002e-03  2.8491101417475405e-03  2.8863903700457939e-03 
 2.9241584051864730e-03  2.9624206300574089e-03  3.0011835110656721e-03  3.0404535992304155e-03 
 3.0802375312899994e-03  3.1205420308236345e-03  3.1613739093876709e-03  3.2027400676667697e-03 
 3.2446474966401355e-03  3.2871032787630079e-03  3.3301145891636154e-03  3.3736886968557863e-03 
 3.4178329659674345e-03  3.4625548569851010e-03  3.5078619280148140e-03  3.5537618360594117e-03 
 3.6002623383126009e-03  3.6473712934699371e-03  3.6950966630569662e-03  3.7434465127747399e-03 
 3.7924290138629368e-03  3.8420524444808279e-03  3.8923251911062904e-03  3.9432557499531591e-03 
 3.9948527284071013e-03  4.0471248464802791e-03  4.1000809382850615e-03  4.1537299535270031e-03 
 4.2080809590173693e-03  4.2631431402054502e-03  4.3189258027309212e-03  4.3754383739965132e-03 
 4.4326904047612753e-03  4.4906915707546751e-03  4.5494516743118133e-03  4.6089806460300441e-03 
 4.6692885464472743e-03  4.7303855677422128e-03  4.7922820354568746e-03  4.8549884102416273e-03 
 4.9185152896230495e-03  4.9828734097949598e-03  5.0480736474328471e-03  5.1141270215320535e-03 
 5.1810446952700153e-03  5.2488379778928658e-03  5.3175183266267224e-03  5.3870973486139870e-03 
 5.4575868028749848e-03  5.5289986022952478e-03  5.6013448156388510e-03  5.6746376695880393e-03 
 5.7488895508095751e-03  5.8241130080481105e-03  5.9003207542469589e-03  5.9775256686966085e-03 
 6.0557407992113572e-03  6.1349793643344277e-03  6.2152547555719096e-03  6.2965805396559904e-03 
 6.3789704608377441e-03  6.4624384432099453e-03  6.5469985930602789e-03  6.6326652012553295e-03 
 6.7194527456557766e-03  6.8073758935631870e-03  6.8964495041988292e-03  6.9866886312148924e-03 
 7.0781085252386257e-03  7.1707246364497062e-03  7.2645526171913654e-03  7.3596083246156678e-03 
 7.4559078233634108e-03  7.5534673882790837e-03  7.6523035071613581e-03  7.7524328835495739e-03 
 7.8538724395466417e-03  7.9566393186789684e-03  8.0607508887937263e-03  8.1662247449940540e-03 
 8.2730787126126925e-03  8.3813308502244891e-03  8.4909994526983518e-03  8.6021030542891216e-03 
 8.7146604317699106e-03  8.8286906076053967e-03  8.9442128531667039e-03  9.0612466919882898e-03 
 9.1798119030674658e-03  9.2999285242071003e-03  9.4216168554020555e-03  9.5448974622699325e-03 
 9.6697911795267117e-03  9.7963191145078801e-03  9.9245026507355765e-03  1.0054363451532525e-02 
 1.0185923463683140e-02  1.0319204921142602e-02  1.0454230348794440e-02  1.0591022566257307e-02 
 1.0729604691741529e-02  1.0870000145956151e-02  1.1012232656067102e-02  1.1156326259707097e-02 
 1.1302305309038120e-02  1.1450194474866950e-02  1.1600018750814602e-02  1.1751803457540309e-02 
 1.1905574247020771e-02  1.2061357106885395e-02  1.2219178364808281e-02  1.2379064692957657e-02 
 1.2541043112503501e-02  1.2705140998184258e-02  1.2871386082933171e-02  1.3039806462565244e-02 
 1.3210430600525493e-02  1.3383287332699329e-02  1.3558405872285913e-02  1.3735815814735231e-02 
 1.3915547142749821e-02  1.4097630231351873e-02  1.4282095853016747e-02  1.4468975182873548e-02 
 1.4658299803973818e-02  1.4850101712629130e-02  1.5044413323818555e-02  1.5241267476666867e-02 
 1.5440697439994424e-02  1.5642736917939708e-02  1.5847420055655335e-02  1.6054781445078766e-02 
 1.6264856130778344e-02  1.6477679615875956e-02  1.6693287868047121e-02  1.6911717325599630e-02 
 1.7133004903631687e-02  1.7357188000270665e-02  1.7584304502993489e-02  1.7814392795029652e-02 
 1.8047491761848153e-02  1.8283640797729185e-02  1.8522879812421865e-02  1.8765249237889092e-02 
 1.9010790035140626e-02  1.9259543701155620e-02  1.9511552275895690e-02  1.9766858349409781e-02 
 2.0025505069031942e-02  2.0287536146673408e-02  2.0552995866209962e-02  2.0821929090966022e-02 
 2.1094381271296661e-02  2.1370398452268822e-02  2.1650027281443027e-02  2.1933315016756955e-02 
 2.2220309534512150e-02  2.2511059337465143e-02  2.2805613563024664e-02  2.3104021991555906e-02 
 2.3406335054793524e-02  2.3712603844364747e-02  2.4022880120423959e-02  2.4337216320400298e-02 
 2.4655665567859718e-02  2.4978281681482997e-02  2.5305119184161149e-02  2.5636233312210058e-02 
 2.5971680024705443e-02  2.6311516012940118e-02  2.6655798710004931e-02  2.7004586300495112e-02 
 2.7357937730343611e-02  2.7715912716783073e-02  2.8078571758438246e-02  2.8445976145550295e-02 
 2.8818187970335109e-02  2.9195270137476994e-02  2.9577286374759672e-02  2.9964301243836491e-02 
 3.0356380151141456e-02  3.0753589358943081e-02  3.1155995996542882e-02  3.1563668071620421e-02 
 3.1976674481726614e-02  3.2395085025927792e-02  3.2818970416601798e-02  3.3248402291388528e-02 
 3.3683453225296922e-02  3.4124196742970264e-02  3.4570707331112054e-02  3.5023060451074436e-02 
 3.5481332551611351e-02  3.5945601081798464e-02  3.6415944504122402e-02  3.6892442307741011e-02 
 3.7375175021917208e-02  3.7864224229628644e-02  3.8359672581355406e-02  3.8861603809048149e-02 
 3.9370102740278995e-02  3.9885255312577632e-02  4.0407148587954828e-02  4.0935870767616317e-02 
 4.1471511206868858e-02  4.2014160430221575e-02  4.2563910146684758e-02  4.3120853265268960e-02 
 4.3685083910686789e-02  4.4256697439260258e-02  4.4835790455036224e-02  4.5422460826112565e-02 
 4.6016807701178365e-02  4.6618931526270127e-02  4.7228934061747392e-02  4.7846918399490526e-02 
 4.8472988980323463e-02  4.9107251611664487e-02  4.9749813485407884e-02  5.0400783196039731e-02 
 5.1060270758990410e-02  5.1728387629227733e-02  5.2405246720092967e-02  5.3090962422383453e-02 
 5.3785650623684941e-02  5.4489428727956896e-02  5.5202415675373977e-02  5.5924731962427282e-02 
 5.6656499662288570e-02  5.7397842445440689e-02  5.8148885600578501e-02  5.8909756055782782e-02 
 5.9680582399971399e-02  6.0461494904631187e-02  6.1252625545834057e-02  6.2054108026541349e-02 
 6.2866077799199893e-02  6.3688672088633921e-02  6.4522029915236076e-02  6.5366292118462566e-02 
 6.6221601380635195e-02  6.7088102251054937e-02  6.7965941170431310e-02  6.8855266495630979e-02 
 6.9756228524750621e-02  7.0668979522517522e-02  7.1593673746022782e-02  7.2530467470790935e-02 
 7.3479519017191172e-02  7.4440988777193684e-02  7.5415039241476300e-02  7.6401835026885814e-02 
 7.7401542904258630e-02  7.8414331826605427e-02  7.9440372957664609e-02  8.0479839700829489e-02 
 8.1532907728453535e-02  8.2599755011539905e-02  8.3680561849818619e-02  8.4775510902217799e-02 
 8.5884787217733363e-02  8.7008578266702830e-02  8.8147073972488207e-02  8.9300466743573489e-02 
 9.0468951506082265e-02  9.1652725736720356e-02  9.2851989496150297e-02  9.4066945462801810e-02 
 9.5297798967124953e-02  9.6544758026291533e-02  9.7808033379350429e-02  9.9087838522843003e-02 
 1.0038438974688459e-01  1.0169790617171803e-01  1.0302860978474528e-01  1.0437672547804418e-01 
 1.0574248108637560e-01  1.0712610742568794e-01  1.0852783833212572e-01  1.0994791070154838e-01 
 1.1138656452956629e-01  1.1284404295210046e-01  1.1432059228647340e-01  1.1581646207303671e-01 
 1.1733190511734476e-01  1.1886717753287893e-01  1.2042253878433150e-01  1.2199825173145595e-01 
 1.2359458267349065e-01  1.2521180139416421e-01  1.2685018120728964e-01  1.2850999900295487e-01 
 1.3019153529431773e-01  1.3189507426501376e-01  1.3362090381718364e-01  1.3536931562012930e-01 
 1.3714060515960680e-01  1.3893507178776421e-01  1.4075301877373264e-01  1.4259475335487964e-01 
 1.4446058678873294e-01  1.4635083440558369e-01  1.4826581566177813e-01  1.5020585419370641e-01 
 1.5217127787249815e-01  1.5416241885943244e-01  1.5617961366207544e-01  1.5822320319114991e-01 
 1.6029353281815023e-01  1.6239095243371093e-01  1.6451581650673910e-01  1.6666848414432045e-01 
 1.6884931915240933e-01  1.7105869009731267e-01  1.7329697036797870e-01  1.7556453823910045e-01 
 1.7786177693504521e-01  1.8018907469462023e-01  1.8254682483668605e-01  1.8493542582662839e-01 
 1.8735528134369964e-01  1.8980680034924163e-01  1.9229039715580157e-01  1.9480649149715024e-01 
 1.9735550859922021e-01  1.9993787925196868e-01  2.0255403988218224e-01  2.0520443262723403e-01 
 2.0788950540980627e-01  2.1060971201358988e-01  2.1336551215997529e-01  2.1615737158574630e-01 
 2.1898576212179074e-01  2.2185116177284109e-01  2.2475405479825827e-01  2.2769493179387268e-01 
 2.3067428977489632e-01  2.3369263225991899e-01  2.3675046935600466e-01  2.3984831784490052e-01 
 2.4298670127037481e-01  2.4616615002669523e-01  2.4938720144826934e-01  2.5265039990045390e-01 
 2.5595629687155408e-01  2.5930545106602632e-01  2.6269842849890074e-01  2.6613580259143910e-01 
 2.6961815426804442e-01  2.7314607205443830e-01  2.7672015217712348e-01  2.8034099866414736e-01 
 2.8400922344718410e-01  2.8772544646495285e-01  2.9149029576798863e-01  2.9530440762478427e-01 
 2.9916842662932158e-01  3.0308300581000902e-01  3.0704880674004575e-01  3.1106649964922695e-01 
 3.1513676353721709e-01  3.1926028628830116e-01  3.2343776478763819e-01  3.2766990503903753e-01 
 3.3195742228427461e-01  3.3630104112396847e-01  3.4070149564004132e-01  3.4515952951977980e-01 
 3.4967589618152023e-01  3.5425135890197779e-01  3.5888669094524223e-01  3.6358267569346153e-01 
 3.6834010677923495e-01  3.7315978821973916e-01  3.7804253455260883e-01  3.8298917097359575e-01 
 3.8800053347602925e-01  3.9307746899209817e-01  3.9822083553598930e-01  4.0343150234889003e-01 
 4.0871035004589373e-01  4.1405827076482538e-01  4.1947616831701506e-01  4.2496495834004411e-01 
 4.3052556845249040e-01  4.3615893841069764e-01  4.4186602026759675e-01  4.4764777853360488e-01 
 4.5350519033963033e-01  4.5943924560220939e-01  4.6545094719080499e-01  4.7154131109729419e-01 
 4.7771136660767272e-01  4.8396215647600727e-01  4.9029473710066385e-01  4.9671017870283840e-01 
 5.0320956550743212e-01  5.0979399592628405e-01  5.1646458274380658e-01  5.2322245330504835e-01 
 5.3006874970621876e-01  5.3700462898770451e-01  5.4403126332961216e-01  5.5114984024986946e-01 
 5.5836156280491889e-01  5.6566764979303696e-01  5.7306933596031373e-01  5.8056787220932837e-01 
 5.8816452581055401e-01  5.9586058061653002e-01  6.0365733727883619e-01  6.1155611346790528e-01 
 6.1955824409571425e-01  6.2766508154138290e-01  6.3587799587973559e-01  6.4419837511284317e-01 
 6.5262762540459929e-01  6.6116717131836555e-01  6.6981845605772650e-01  6.7858294171039402e-01 
 6.8746210949530351e-01  6.9645746001294406e-01  7.0557051349896294e-01  7.1480281008108926e-01 
 7.2415591003941904e-01  7.3363139407010669e-01  7.4323086355250589e-01  7.5295594081980677e-01 
 7.6280826943321423e-01  7.7278951445971322e-01  7.8290136275347122e-01  7.9314552324091414e-01 
 8.0352372720954790e-01  8.1403772860054424e-01  8.2468930430516263e-01  8.3548025446504892e-01 
 8.4641240277646357e-01  8.5748759679849085e-01  8.6870770826528054e-01  8.8007463340237546e-01 
 8.9159029324717798e-01  9.0325663397361078e-01  9.1507562722102298e-01  9.2704927042740415e-01 
 9.3917958716695438e-01  9.5146862749207428e-01  9.6391846827982774e-01  9.7653121358293959e-01 
 9.8930899498538727e-01  1.0022539719626371e+00  1.0153683322466103e+00  1.0286542921954076e+00 
 1.0421140971678828e+00  1.0557500219031115e+00  1.0695643709048293e+00  1.0835594788308966e+00 
 1.0977377108878628e+00  1.1121014632306909e+00  1.1266531633677141e+00  1.1413952705708899e+00 
 1.1563302762914232e+00  1.1714607045808281e+00  1.1867891125174965e+00  1.2023180906388535e+00 
 1.2180502633791617e+00  1.2339882895130585e+00  1.2501348626048969e+00  1.2664927114639550e+00 
 1.2830646006056259e+00  1.2998533307186166e+00  1.3168617391382760e+00  1.3340927003261076e+00 
 1.3515491263555643e+00  1.3692339674041927e+00  1.3871502122522217e+00  1.4053008887876730e+00 
 1.4236890645180815e+00  1.4423178470889111e+00  1.4611903848087548e+00  1.4803098671814059e+00 
 1.4996795254448911e+00  1.5193026331175590e+00  1.5391825065513107e+00  1.5593225054920732e+00 
 1.5797260336476049e+00  1.6003965392627211e+00  1.6213375157020711e+00  1.6425525020405152e+00 
 1.6640450836612379e+00  1.6858188928616875e+00  1.7078776094674428e+00  1.7302249614541121e+00 
 1.7528647255773699e+00  1.7758007280112380e+00  1.7990368449947174e+00  1.8225770034868825e+00 
 1.8464251818305466e+00  1.8705854104246109e+00  1.8950617724052106e+00  1.9198584043357774e+00 
 1.9449794969061260e+00  1.9704292956406906e+00  1.9962121016160346e+00  2.0223322721877262e+00 
 2.0487942217267641e+00  2.0756024223656016e+00  2.1027614047539540e+00  2.1302757588244852e+00 
 2.1581501345685203e+00  2.1863892428219032e+00  2.2149978560611410e+00  2.2439808092099627e+00 
 2.2733430004564323e+00  2.3030893920807549e+00  2.3332250112939148e+00  2.3637549510872846e+00 
 2.3946843710933536e+00  2.4260184984577182e+00  2.4577626287224805e+00  2.4899221267212095e+00 
 2.5225024274856147e+00  2.5555090371640605e+00  2.5889475339521457e+00  2.6228235690354142e+00 
 2.6571428675444237e+00  2.6919112295223053e+00  2.7271345309049853e+00  2.7628187245142315e+00 
 2.7989698410636974e+00  2.8355939901781215e+00  2.8726973614258742e+00  2.9102862253650050e+00 
 2.9483669346029853e+00  2.9869459248703123e+00  3.0260297161081628e+00  3.0656249135702787e+00 
 3.1057382089392718e+00  3.1463763814575332e+00  3.1875462990729466e+00  3.2292549195995663e+00 
 3.2715092918935378e+00  3.3143165570443474e+00  3.3576839495816917e+00  3.4016187986981281e+00 
 3.4461285294877260e+00  3.4912206642009265e+00  3.5369028235158204e+00  3.5831827278260593e+00 
 3.6300681985456213e+00  3.6775671594306525e+00  3.7256876379185919e+00  3.7744377664848372e+00 
 3.8238257840171448e+00  3.8738600372080274e+00  3.9245489819653594e+00  3.9759011848414496e+00 
 4.0279253244808153e+00  4.0806301930868623e+00  4.1340246979078366e+00  4.1881178627421347e+00 
 4.2429188294633624e+00  4.2984368595653271e+00  4.3546813357272534e+00  4.4116617633994810e+00 
 4.4693877724099043e+00  4.5278691185914406e+00  4.5871156854307849e+00  4.6471374857387460e+00 
 4.7079446633424347e+00  4.7695474947995908e+00  4.8319563911353534e+00  4.8951818996017415e+00 
 4.9592347054601680e+00  5.0241256337872757e+00  5.0898656513044083e+00  5.1564658682309741e+00 
 5.2239375401621588e+00  5.2922920699711078e+00  5.3615410097360492e+00  5.4316960626926223e+00 
 5.5027690852117530e+00  5.5747720888034058e+00  5.6477172421465651e+00  5.7216168731457593e+00 
 5.7964834710145166e+00  5.8723296883860669e+00  5.9491683434516673e+00  6.0270124221269077e+00 
 6.1058750802463599e+00  6.1857696457869471e+00  6.2667096211204019e+00  6.3487086852952022e+00 
 6.4317806963483690e+00  6.5159396936474678e+00  6.6011999002633592e+00  6.6875757253738906e+00 
 6.7750817666990866e+00  6.8637328129682054e+00  6.9535438464190626e+00  7.0445300453300730e+00 
 7.1367067865854068e+00  7.2300896482737267e+00  7.3246944123209152e+00  7.4205370671572695e+00 
 7.5176338104195697e+00  7.6160010516885244e+00  7.7156554152620362e+00  7.8166137429647318e+00 
 7.9188930969942861e+00  8.0225107628049628e+00  8.1274842520289212e+00  8.2338313054356576e+00 
 8.3415698959303270e+00  8.4507182315911500e+00  8.5612947587466408e+00  8.6733181650930700e+00 
 8.7868073828527358e+00  8.9017815919735526e+00  9.0182602233705182e+00  9.1362629622095639e+00 
 9.2558097512344109e+00  9.3769207941369412e+00  9.4996165589716579e+00  9.6239177816148480e+00 
 9.7498454692689851e+00  9.8774209040130057e+00  1.0006665646399021e+01  1.0137601539096110e+01 
 1.0270250710581799e+01  1.0404635578881745e+01  1.0540778855358562e+01  1.0678703548550011e+01 
 1.0818432968057509e+01  1.0959990728485527e+01  1.1103400753432497e+01  1.1248687279533964e+01 
 1.1395874860558639e+01  1.1544988371558031e+01  1.1696053013070404e+01  1.1849094315379727e+01 
 1.2004138142830337e+01  1.2161210698198097e+01  1.2320338527118711e+01  1.2481548522574005e+01 
 1.2644867929436906e+01  1.2810324349075891e+01  1.2977945744019705e+01  1.3147760442683001e+01 
 1.3319797144154052e+01  1.3494084923044872e+01  1.3670653234404913e+01  1.3849531918699046e+01 
 1.4030751206850665e+01  1.4214341725350787e+01  1.4400334501433999e+01  1.4588760968322147e+01 
 1.4779652970536603e+01  1.4973042769280081e+01  1.5168963047888859e+01  1.5367446917356331e+01 
 1.5568527921928844e+01  1.5772240044774767e+01  1.5978617713727711e+01  1.6187695807104934e+01 
 1.6399509659601868e+01  1.6614095068263666e+01  1.6831488298535156e+01  1.7051726090389664e+01 
 1.7274845664538208e+01  1.7500884728719868e+01  1.7729881484074475e+01  1.7961874631598722e+01 
 1.8196903378686713e+01  1.8435007445756085e+01  1.8676227072960899e+01  1.8920603026992268e+01 
 1.9168176607968061e+01  1.9418989656412720e+01  1.9673084560328384e+01  1.9930504262358589e+01 
 2.0191292267045657e+01  2.0455492648183093e+01  2.0723150056264153e+01  2.0994309726027790e+01 
 2.1269017484103610e+01  2.1547319756756568e+01  2.1829263577733119e+01  2.2114896596210070e+01 
 2.2404267084847369e+01  2.2697423947946334e+01  2.2994416729714565e+01  2.3295295622639053e+01 
 2.3600111475968827e+01  2.3908915804308588e+01  2.4221760796324805e+01  2.4538699323565741e+01 
 2.4859784949396833e+01  2.5185071938053071e+01  2.5514615263809745e+01  2.5848470620273254e+01 
 2.6186694429793494e+01  2.6529343852999194e+01  2.6876476798458455e+01  2.7228151932465270e+01 
 2.7584428688954304e+01  2.7945367279545383e+01  2.8311028703719384e+01  2.8681474759127298e+01 
 2.9056768052034190e+01  2.9436972007899797e+01  2.9822150882097578e+01  3.0212369770774032e+01 
 3.0607694621850118e+01  3.1008192246166566e+01  3.1413930328775123e+01  3.1824977440377424e+01 
 3.2241403048913675e+01  3.2663277531302917e+01  3.3090672185336643e+01  3.3523659241728701e+01 
 3.3962311876322161e+01  3.4406704222456298e+01  3.4856911383495316e+01  3.5313009445520976e+01 
 3.5775075490191306e+01  3.6243187607767616e+01  3.6717424910311927e+01  3.7197867545057107e+01 
 3.7684596707951926e+01  3.8177694657383377e+01  3.8677244728078527e+01  3.9183331345188307e+01 
 3.9696040038555545e+01  4.0215457457169720e+01  4.0741671383810825e+01  4.1274770749884993e+01 
 4.1814845650453762e+01  4.2361987359460834e+01  4.2916288345157291e+01  4.3477842285728997e+01 
 4.4046744085128452e+01  4.4623089889113814e+01  4.5206977101497699e+01  4.5798504400608728e+01 
 4.6397771755968321e+01  4.7004880445185869e+01  4.7619933071074804e+01  4.8243033578992801e+01 
 4.8874287274408736e+01  4.9513800840699581e+01  5.0161682357180133e+01  5.0818041317368710e+01 
 5.1482988647491780e+01  5.2156636725230861e+01  5.2839099398714247e+01  5.3530492005758191e+01 
 5.4230931393358858e+01  5.4940535937439861e+01  5.5659425562858083e+01  5.6387721763671244e+01 
 5.7125547623670705e+01  5.7873027837182889e+01  5.8630288730142965e+01  5.9397458281444202e+01 
 6.0174666144566686e+01  6.0962043669489134e+01  6.1759723924887290e+01  6.2567841720622859e+01 
 6.3386533630526742e+01  6.4215938015480262e+01  6.5056195046798535e+01  6.5907446729919869e+01 
 6.6769836928404573e+01  6.7643511388248811e+01  6.8528617762515793e+01  6.9425305636289352e+01 
 7.0333726551954413e+01  7.1254034034807816e+01  7.2186383619004602e+01  7.3130932873843562e+01 
 7.4087841430396907e+01  7.5057271008488215e+01  7.6039385444023523e+01  7.7034350716679967e+01 
 7.8042334977956727e+01  7.9063508579593091e+01  8.0098044102358188e+01  8.1146116385217681e+01 
 8.2207902554881883e+01  8.3283582055740766e+01  8.4373336680189908e+01  8.5477350599354708e+01 
 8.6595810394215164e+01  8.7728905087138642e+01  8.8876826173825123e+01  9.0039767655670445e+01 
 9.1217926072552913e+01  9.2411500536049132e+01  9.3620692763084264e+01  9.4845707110022644e+01 
 9.6086750607204593e+01  9.7344032993934931e+01  9.8617766753929430e+01  9.9908167151225200e+01 
 1.0121545226656060e+02  1.0253984303423164e+02  1.0388156327943020e+02  1.0524083975607134e+02 
 1.0661790218511446e+02  1.0801298329338778e+02  1.0942631885291902e+02  1.1085814772078164e+02 
 1.1230871187946219e+02  1.1377825647775596e+02  1.1526702987219772e+02  1.1677528366903458e+02 
 1.1830327276674797e+02 
  </PP_R>
  <PP_RAB>
 6.2497481379987667e-07  6.3315252634166935e-07  6.4143724316737817e-07  6.4983036441386489e-07 
 6.5833330853859673e-07  6.6694751255936912e-07  6.7567443229716303e-07  6.8451554262218564e-07 
 6.9347233770312473e-07  7.0254633125966682e-07  7.1173905681832002e-07  7.2105206797158337e-07 
 7.3048693864050756e-07  7.4004526334069156e-07  7.4972865745176023e-07  7.5953875749036418e-07 
 7.6947722138675965e-07  7.7954572876500001e-07  7.8974598122679569e-07  8.0007970263909041e-07 
 8.1054863942539853e-07  8.2115456086095350e-07  8.3189925937172135e-07  8.4278455083732433e-07 
 8.5381227489792706e-07  8.6498429526514341e-07  8.7630250003700565e-07  8.8776880201705894e-07 
 8.9938513903762860e-07  9.1115347428731956e-07  9.2307579664279835e-07  9.3515412100491922e-07 