  <PP_INFO>

############################################################
#    Opium Parameter File                                  #
############################################################
#-----------------------------------------------------------
#Command line   : /usr/local/bin/opium ne ne.log all ke upf rpt upf plot wp 
 
#Opium version  : 3.8 
#Compile Host   : vagvlan567.217.wlan.design.upenn.edu 
#Compile OS     : Darwin 14.1.0 i386 
#Compile Date   : Wed Mar 18 18:57:27 EDT 2015 
#-----------------------------------------------------------
#Execution Host : vagvlan567.0951.wlan.wireless-pennnet.upenn.edu 
#Execution Date : Tue Oct 13 17:27:22 2015
 
#-----------------------------------------------------------
############################################################
[Atom]
Ne  
3
100   2.00   -
200   2.00   -
210   6.00   -

[Pseudo]
2  1.14 1.63
opt

[Optinfo]
7.07  10
7.07  10
conmax

[Configs]
2
#
200  2.00  -
210  5.20  -
#
200  2.00  -
210  5.40  -

[XC]
gga
############################################################
  </PP_INFO>



<PP_HEADER>
   0         Version Number
   Ne        Element
   NC        Norm - Conserving pseudopotential
    F      Nonlinear Core Correction
SLA  PW   PBE  PBE     PBE  Exchange-Correlation functional
 8          Z valence
 0          Total energy
 0.000000   0.000000     Suggested cutoff for wfc and rho
 1           Max angular momentum component
 1135           Number of points in mesh
 2  1     Number of Wavefuncitons, Number of Projectors
 Wavefunctions         nl  l   occ
                       S  0  2.000000
                       P  1  6.000000
</PP_HEADER>
<PP_MESH>
  <PP_R>
 4.6415888336127798e-05  4.7023234078393740e-05  4.7638526859138768e-05  4.8261870664307304e-05 
 4.8893370840486026e-05  4.9533134112707784e-05  5.0181268602488199e-05  5.0837883846098700e-05 
 5.1503090813078287e-05  5.2177001924987620e-05  5.2859731074408588e-05  5.3551393644192393e-05 
 5.4252106526959571e-05  5.4961988144855076e-05  5.5681158469561954e-05  5.6409739042576677e-05 
 5.7147852995750233e-05  5.7895625072097496e-05  5.8653181646879127e-05  5.9420650748959320e-05 
 6.0198162082442996e-05  6.0985847048596052e-05  6.1783838768052533e-05  6.2592272103312389e-05 
 6.3411283681533295e-05  6.4241011917621387e-05  6.5081597037623383e-05  6.5933181102425218e-05 
 6.6795908031760731e-05  6.7669923628534324e-05  6.8555375603462094e-05  6.9452413600035282e-05 
 7.0361189219810420e-05  7.1281856048030054e-05  7.2214569679579548e-05  7.3159487745282526e-05 
 7.4116769938541125e-05  7.5086578042324407e-05  7.6069075956510185e-05  7.7064429725584360e-05 
 7.8072807566703024e-05  7.9094379898121233e-05  8.0129319367994498e-05  8.1177800883556480e-05 
 8.2240001640678802e-05  8.3316101153817568e-05  8.4406281286351705e-05  8.5510726281318357e-05 
 8.6629622792550346e-05  8.7763159916221154e-05  8.8911529222802710e-05  9.0074924789440859e-05 
 9.1253543232755480e-05  9.2447583742068671e-05  9.3657248113068490e-05  9.4882740781912717e-05 
 9.6124268859779197e-05  9.7382042167868031e-05  9.8656273272862007e-05  9.9947177522850475e-05 
 1.0125497308372427e-04  1.0257988097604583e-04  1.0392212511240238e-04  1.0528193233524764e-04 
 1.0665953245523876e-04  1.0805515829007482e-04  1.0946904570384361e-04  1.1090143364688328e-04 
 1.1235256419616551e-04  1.1382268259620677e-04  1.1531203730051579e-04  1.1682088001358239e-04 
 1.1834946573341628e-04  1.1989805279464230e-04  1.2146690291215958e-04  1.2305628122537201e-04 
 1.2466645634299746e-04  1.2629770038846301e-04  1.2795028904589496e-04  1.2962450160670973e-04 
 1.3132062101681486e-04  1.3303893392442766e-04  1.3477973072851919e-04  1.3654330562789263e-04 
 1.3832995667090346e-04  1.4013998580583039e-04  1.4197369893190521e-04  1.4383140595101079e-04 
 1.4571342082005459e-04  1.4762006160402906e-04  1.4955165052976460e-04  1.5150851404038709e-04 
 1.5349098285048733e-04  1.5549939200201269e-04  1.5753408092089013e-04  1.5959539347438939e-04 
 1.6168367802923831e-04  1.6379928751049697e-04  1.6594257946120304e-04  1.6811391610279747e-04 
 1.7031366439634063e-04  1.7254219610452981e-04  1.7479988785452772e-04  1.7708712120161372e-04 
 1.7940428269366725e-04  1.8175176393649576e-04  1.8412996166001613e-04  1.8653927778530414e-04 
 1.8898011949251945e-04  1.9145289928971994e-04  1.9395803508257681e-04  1.9649595024500154e-04 
 1.9906707369069716e-04  2.0167183994564526e-04  2.0431068922154269e-04  2.0698406749019774e-04 
 2.0969242655890073e-04  2.1243622414678049e-04  2.1521592396215976e-04  2.1803199578092334e-04 
 2.2088491552591121e-04  2.2377516534735037e-04  2.2670323370433979e-04  2.2966961544740108e-04 
 2.3267481190210868e-04  2.3571933095381628e-04  2.3880368713348989e-04  2.4192840170466495e-04 
 2.4509400275154108e-04  2.4830102526822971e-04  2.5155001124916931e-04  2.5484150978072318e-04 
 2.5817607713397742e-04  2.6155427685875131e-04  2.6497667987883887e-04  2.6844386458849606e-04 
 2.7195641695019107e-04  2.7551493059363322e-04  2.7912000691609790e-04  2.8277225518406407e-04 
 2.8647229263618164e-04  2.9022074458758673e-04  2.9401824453558032e-04  2.9786543426669229e-04 
 3.0176296396514389e-04  3.0571149232273061e-04  3.0971168665014284e-04  3.1376422298974268e-04 
 3.1786978622981734e-04  3.2202907022032537e-04  3.2624277789016095e-04  3.3051162136594938e-04 
 3.3483632209239825e-04  3.3921761095422357e-04  3.4365622839967088e-04  3.4815292456565283e-04 
 3.5270845940452400e-04  3.5732360281251480e-04  3.6199913475984564e-04  3.6673584542254391e-04 
 3.7153453531598563e-04  3.7639601543018359e-04  3.8132110736684816e-04  3.8631064347823891e-04 
 3.9136546700783449e-04  3.9648643223284179e-04  4.0167440460857237e-04  4.0693026091470587e-04 
 4.1225488940346730e-04  4.1764918994974438e-04  4.2311407420316850e-04  4.2865046574218531e-04 
 4.3425930023014228e-04  4.3994152557341710e-04  4.4569810208161732e-04  4.5153000262987392e-04 
 4.5743821282326011e-04  4.6342373116336057e-04  4.6948756921702127e-04  4.7563075178730520e-04 
 4.8185431708668838e-04  4.8815931691251907e-04  4.9454681682477482e-04  5.0101789632614273e-04 
 5.0757364904446096e-04  5.1421518291754195e-04  5.2094362038041799e-04  5.2776009855503452e-04 
 5.3466576944242680e-04  5.4166180011741127e-04  5.4874937292582299e-04  5.5592968568433574e-04 
 5.6320395188289561e-04  5.7057340088980367e-04  5.7803927815948191e-04  5.8560284544295843e-04 
 5.9326538100110680e-04  6.0102817982067287e-04  6.0889255383313385e-04  6.1685983213641586e-04 
 6.2493136121951546e-04  6.3310850519005782e-04  6.4139264600483661e-04  6.4978518370336692e-04 
 6.5828753664449460e-04  6.6690114174610326e-04  6.7562745472795629e-04  6.8446795035771702e-04 
 6.9342412270018811e-04  7.0249748536981200e-04  7.1168957178647531e-04  7.2100193543466070e-04 
 7.3043615012598879e-04  7.3999381026519705e-04  7.4967653111959753e-04  7.5948594909205913e-04 
 7.6942372199756740e-04  7.7949152934339626e-04  7.8969107261295008e-04  8.0002407555331576e-04 
 8.1049228446658484e-04  8.2109746850497875e-04  8.3184141996984139e-04  8.4272595461454183e-04 
 8.5375291195134164e-04  8.6492415556227561e-04  8.7624157341410303e-04  8.8770707817737685e-04 
 8.9932260754969147e-04  9.1109012458315676e-04  9.2301161801615936e-04  9.3508910260946352e-04 
 9.4732461948671197e-04  9.5972023647937727e-04  9.7227804847623456e-04  9.8500017777739999e-04 
 9.9788877445300644e-04  1.0109460167065667e-03  1.0241741112430995e-03  1.0375752936420657e-03 
 1.0511518287351870e-03  1.0649060109892076e-03  1.0788401648936647e-03  1.0929566453537329e-03 
 1.1072578380882082e-03  1.1217461600327016e-03  1.1364240597481045e-03  1.1512940178344043e-03 
 1.1663585473499090e-03  1.1816201942359621e-03  1.1970815377472127e-03  1.2127451908875112e-03 
 1.2286138008515204e-03  1.2446900494720934e-03  1.2609766536735112e-03  1.2774763659306450e-03 
 1.2941919747341383e-03  1.3111263050616640e-03  1.3282822188553523e-03  1.3456626155054674e-03 
 1.3632704323404102e-03  1.3811086451231340e-03  1.3991802685540558e-03  1.4174883567805478e-03 
 1.4360360039130948e-03  1.4548263445482079e-03  1.4738625542981771e-03  1.4931478503277581e-03 
 1.5126854918978822e-03  1.5324787809164735e-03  1.5525310624964874e-03  1.5728457255212373e-03 
 1.5934262032171269e-03  1.6142759737338673e-03  1.6353985607323012e-03  1.6567975339799063e-03 
 1.6784765099540921e-03  1.7004391524533965e-03  1.7226891732166753e-03  1.7452303325503945e-03 
 1.7680664399641320e-03  1.7912013548143924e-03  1.8146389869568493e-03  1.8383832974071183e-03 
 1.8624382990101791e-03  1.8868080571185556e-03  1.9114966902793718e-03  1.9365083709303916e-03 
 1.9618473261051759e-03  1.9875178381474580e-03  2.0135242454348726e-03  2.0398709431121475e-03 
 2.0665623838338988e-03  2.0936030785171358e-03  2.1209975971036204e-03  2.1487505693321965e-03 
 2.1768666855212222e-03  2.2053506973612547e-03  2.2342074187180891e-03  2.2634417264463177e-03 
 2.2930585612135250e-03  2.3230629283352783e-03  2.3534598986210352e-03  2.3842546092311210e-03 
 2.4154522645449248e-03  2.4470581370404456e-03  2.4790775681853613e-03  2.5115159693397445e-03 
 2.5443788226705974e-03  2.5776716820783497e-03  2.6114001741354828e-03  2.6455699990374278e-03 
 2.6801869315659227e-03  2.7152568220649566e-03  2.7507855974294930e-03  2.7867792621071312e-03 
 2.8232438991128697e-03  2.8601856710571516e-03  2.8976108211873608e-03  2.9355256744429477e-03 
 2.9739366385243475e-03  3.0128502049759148e-03  3.0522729502829985e-03  3.0922115369833845e-03 
 3.1326727147932831e-03  3.1736633217480464e-03  3.2151902853578109e-03  3.2572606237782644e-03 
 3.2998814469967345e-03  3.3430599580337819e-03  3.3868034541605424e-03  3.4311193281319763e-03 
 3.4760150694362604e-03  3.5214982655605311e-03  3.5675766032731886e-03  3.6142578699229766e-03 
 3.6615499547550646e-03  3.7094608502443527e-03  3.7579986534462045e-03  3.8071715673648893e-03 
 3.8569879023398952e-03  3.9074560774504013e-03  3.9585846219381193e-03  4.0103821766487597e-03 
 4.0628574954923507e-03  4.1160194469226745e-03  4.1698770154360559e-03  4.2244393030897529e-03 
 4.2797155310402464e-03  4.3357150411016234e-03  4.3924472973243664e-03  4.4499218875948075e-03 
 4.5081485252554971e-03  4.5671370507467841e-03  4.6268974332698753e-03  4.6874397724716568e-03 
 4.7487743001515415e-03  4.8109113819906953e-03  4.8738615193038388e-03  4.9376353508140073e-03 
 5.0022436544505128e-03  5.0676973491704438e-03  5.1340074968039950e-03  5.2011853039239404e-03 
 5.2692421237395788e-03  5.3381894580154295e-03  5.4080389590150926e-03  5.4788024314704848e-03 
 5.5504918345768758e-03  5.6231192840140174e-03  5.6966970539937250e-03  5.7712375793342475e-03 
 5.8467534575617815e-03  5.9232574510394882e-03  6.0007624891243406e-03  6.0792816703522500e-03 
 6.1588282646517275e-03  6.2394157155865387e-03  6.3210576426276964e-03  6.4037678434551871e-03 
 6.4875602962898085e-03  6.5724491622555252e-03  6.6584487877727316e-03  6.7455737069828199e-03 
 6.8338386442045058e-03  6.9232585164222590e-03  7.0138484358073126e-03  7.1056237122716550e-03 
 7.1985998560554444e-03  7.2927925803482705e-03  7.3882178039447275e-03  7.4848916539347306e-03 
 7.5828304684290079e-03  7.6820507993203193e-03  7.7825694150807419e-03  7.8844033035955809e-03 
 7.9875696750343686e-03  8.0920859647594275e-03  8.1979698362724760e-03  8.3052391841998176e-03 
 8.4139121373165669e-03  8.5240070616104426e-03  8.6355425633856918e-03  8.7485374924075772e-03 
 8.8630109450880488e-03  8.9789822677130600e-03  9.0964710597121641e-03  9.2154971769708403e-03 
 9.3360807351861967e-03  9.4582421132665857e-03  9.5820019567756393e-03  9.7073811814214796e-03 
 9.8344009765914848e-03  9.9630828089333628e-03  1.0093448425983049e-02  1.0225519859840111e-02 
 1.0359319430891212e-02  1.0494869751582318e-02  1.0632193730240252e-02  1.0771314574944239e-02 
 1.0912255797448162e-02  1.1055041217154079e-02  1.1199694965137763e-02  1.1346241488226912e-02 
 1.1494705553132725e-02  1.1645112250635525e-02  1.1797486999825180e-02  1.1951855552396974e-02 
 1.2108243997003686e-02  1.2266678763664683e-02  1.2427186628232622e-02  1.2589794716918640e-02 
 1.2754530510876744e-02  1.2921421850848205e-02  1.3090496941866692e-02  1.3261784358025002e-02 
 1.3435313047304161e-02  1.3611112336465650e-02  1.3789211936007763e-02  1.3969641945186720e-02 
 1.4152432857103514e-02  1.4337615563857316e-02  1.4525221361766325e-02  1.4715281956656900e-02 
 1.4907829469221947e-02  1.5102896440449385e-02  1.5300515837121598e-02  1.5500721057386990e-02 
 1.5703545936404297e-02  1.5909024752060817e-02  1.6117192230765451e-02  1.6328083553317562e-02 
 1.6541734360852604e-02  1.6758180760865556e-02  1.6977459333313200e-02  1.7199607136796156e-02 
 1.7424661714821960e-02  1.7652661102149948e-02  1.7883643831219240e-02  1.8117648938660809e-02 
 1.8354715971894774e-02  1.8594884995813986e-02  1.8838196599555115e-02  1.9084691903358316e-02 
 1.9334412565516580e-02  1.9587400789416193e-02  1.9843699330669120e-02  2.0103351504338861e-02 
 2.0366401192260748e-02  2.0632892850458141e-02  2.0902871516655534e-02  2.1176382817890103e-02 
 2.1453472978222757e-02  2.1734188826550049e-02  2.2018577804518498e-02  2.2306687974542262e-02 
 2.2598568027925793e-02  2.2894267293092824e-02  2.3193835743922957e-02  2.3497324008197391e-02 
 2.3804783376155110e-02  2.4116265809161107e-02  2.4431823948487880e-02  2.4751511124212051e-02 
 2.5075381364227201e-02  2.5403489403374741e-02  2.5735890692694219e-02  2.6072641408794665e-02 
 2.6413798463348608e-02  2.6759419512710252e-02  2.7109562967659578e-02  2.7464288003273794e-02 
 2.7823654568928224e-02  2.8187723398427799e-02  2.8556556020271212e-02  2.8930214768049418e-02 
 2.9308762790980131e-02  2.9692264064580216e-02  3.0080783401477674e-02  3.0474386462365183e-02 
 3.0873139767096790e-02  3.1277110705930103e-02  3.1686367550915258e-02  3.2100979467433136e-02 
 3.2521016525884454e-02  3.2946549713531816e-02  3.3377650946496737e-02  3.3814393081913648e-02 
 3.4256849930242958e-02  3.4705096267745081e-02  3.5159207849117927e-02  3.5619261420299593e-02 
 3.6085334731438573e-02  3.6557506550033758e-02  3.7035856674246304e-02  3.7520465946385709e-02 
 3.8011416266572402e-02  3.8508790606579024e-02  3.9012673023852772e-02  3.9523148675721487e-02 
 4.0040303833785318e-02  4.0564225898496856e-02  4.1095003413932012e-02  4.1632726082754215e-02 
 4.2177484781374321e-02  4.2729371575308969e-02  4.3288479734739913e-02  4.3854903750276772e-02 
 4.4428739348926334e-02  4.5010083510270568e-02  4.5599034482856390e-02  4.6195691800799923e-02 
 4.6800156300608006e-02  4.7412530138219791e-02  4.8032916806271350e-02  4.8661421151586198e-02 
 4.9298149392894508e-02  4.9943209138784583e-02  5.0596709405888785e-02  5.1258760637307645e-02 
 5.1929474721275015e-02  5.2608965010067454e-02  5.3297346339161021e-02  5.3994735046638750e-02 
 5.4701248992852100e-02  5.5417007580339461e-02  5.6142131774005732e-02  5.6876744121565528e-02 
 5.7620968774254003e-02  5.8374931507808814e-02  5.9138759743726434e-02  5.9912582570796714e-02 
 6.0696530766919200e-02  6.1490736821204962e-02  6.2295334956367354e-02  6.3110461151406297e-02 
 6.3936253164588827e-02  6.4772850556730641e-02  6.5620394714782190e-02  6.6479028875723434e-02 
 6.7348898150771191e-02  6.8230149549903335e-02  6.9122932006703802e-02  7.0027396403532630e-02 
 7.0943695597025624e-02  7.1871984443927367e-02  7.2812419827262415e-02  7.3765160682848885e-02 
 7.4730368026158969e-02  7.5708204979530971e-02  7.6698836799737366e-02  7.7702430905913639e-02 
 7.8719156907852250e-02  7.9749186634667485e-02  8.0792694163834777e-02  8.1849855850610165e-02 
 8.2920850357834891e-02  8.4005858686129739e-02  8.5105064204484618e-02  8.6218652681248328e-02 
 8.7346812315523978e-02  8.8489733768974760e-02  8.9647610198046596e-02  9.0820637286611910e-02 
 9.2009013279040555e-02  9.3212939013703713e-02  9.4432617956916001e-02  9.5668256237321753e-02 
 9.6920062680731348e-02  9.8188248845413190e-02  9.9473029057847343e-02  1.0077462044894769e-01 
 1.0209324299075728e-01  1.0342911953362410e-01  1.0478247584386340e-01  1.0615354064191276e-01 
 1.0754254564098628e-01  1.0894972558623479e-01  1.1037531829441838e-01  1.1181956469409755e-01 
 1.1328270886635139e-01  1.1476499808602747e-01  1.1626668286353188e-01  1.1778801698716619e-01 
 1.1932925756601820e-01  1.2089066507341403e-01  1.2247250339093876e-01  1.2407503985303306e-01 
 1.2569854529217300e-01  1.2734329408464207e-01  1.2900956419690074e-01  1.3069763723256397e-01 
 1.3240779847999251e-01  1.3414033696050753e-01  1.3589554547723587e-01  1.3767372066459441e-01 
 1.3947516303842203e-01  1.4130017704676751e-01  1.4314907112134201e-01  1.4502215772964464e-01 
 1.4691975342777061e-01  1.4884217891390886e-01  1.5078975908254230e-01  1.5276282307935493e-01 
 1.5476170435685827e-01  1.5678674073074575e-01  1.5883827443698434e-01  1.6091665218965323e-01 
 1.6302222523953935e-01  1.6515534943349966e-01  1.6731638527459991e-01  1.6950569798304077e-01 
 1.7172365755788072e-01  1.7397063883956684e-01  1.7624702157328381e-01  1.7855319047313165e-01 
 1.8088953528714330e-01  1.8325645086315306e-01  1.8565433721552710e-01  1.8808359959276555e-01 
 1.9054464854599235e-01  1.9303789999833806e-01  1.9556377531523242e-01  1.9812270137561572e-01 
 2.0071511064408271e-01  2.0334144124396994e-01  2.0600213703139972e-01  2.0869764767029278e-01 
 2.1142842870836270e-01  2.1419494165410446e-01  2.1699765405479049e-01  2.1983703957548711e-01 
 2.2271357807910550e-01  2.2562775570749904e-01  2.2858006496362310e-01  2.3157100479476864e-01 
 2.3460108067688629e-01  2.3767080470001120e-01  2.4078069565480997e-01  2.4393127912025570e-01 
 2.4712308755245282e-01  2.5035666037462312e-01  2.5363254406826985e-01  2.5695129226553404e-01 
 2.6031346584276011e-01  2.6371963301528478e-01  2.6717036943346734e-01  2.7066625827997542e-01 
 2.7420789036834475e-01  2.7779586424282759e-01  2.8143078627954854e-01  2.8511327078898319e-01 
 2.8884394011977832e-01  2.9262342476393027e-01  2.9645236346333992e-01  3.0033140331775965e-01 
 3.0426119989415784e-01  3.0824241733750923e-01  3.1227572848303742e-01  3.1636181496992577e-01 
 3.2050136735651569e-01  3.2469508523701307e-01  3.2894367735972130e-01  3.3324786174682108e-01 
 3.3760836581571824e-01  3.4202592650197883e-01  3.4650129038387301e-01  3.5103521380854869e-01 
 3.5562846301985573e-01  3.6028181428784334e-01  3.6499605403995111e-01  3.6977197899391756e-01 
 3.7461039629242776e-01  3.7951212363951969e-01  3.8447798943878225e-01  3.8950883293335475e-01 
 3.9460550434776176e-01  3.9976886503160275e-01  4.0499978760512267e-01  4.1029915610668655e-01 
 4.1566786614218409e-01  4.2110682503638952e-01  4.2661695198630090e-01  4.3219917821648773e-01 
 4.3785444713646893e-01  4.4358371450015210e-01  4.4938794856735809e-01  4.5526813026745866e-01 
 4.6122525336515663e-01  4.6726032462843403e-01  4.7337436399869925e-01  4.7956840476315615e-01 
 4.8584349372943725e-01  4.9220069140251327e-01  4.9864107216392145e-01  5.0516572445333929e-01 
 5.1177575095253314e-01  5.1847226877171360e-01  5.2525640963833076e-01  5.3212932008833791e-01 
 5.3909216165995910e-01  5.4614611108999245e-01  5.5329236051268060e-01  5.6053211766118471e-01 
 5.6786660607169415e-01  5.7529706529020719e-01  5.8282475108201692e-01  5.9045093564393891e-01 
 5.9817690781931598e-01  6.0600397331583256e-01  6.1393345492618745e-01  6.2196669275164596e-01 
 6.3010504442852033e-01  6.3834988535761417e-01  6.4670260893666787e-01  6.5516462679584664e-01 
 6.6373736903630909e-01  6.7242228447189778e-01  6.8122084087399237e-01  6.9013452521956620e-01 
 6.9916484394248901e-01  7.0831332318811802e-01  7.1758150907122009e-01  7.2697096793726868e-01 
 7.3648328662715978e-01  7.4612007274539249e-01  7.5588295493175839e-01  7.6577358313658084e-01 
 7.7579362889956882e-01  7.8594478563230452e-01  7.9622876890443683e-01  8.0664731673361545e-01 
 8.1720218987922078e-01  8.2789517213993569e-01  8.3872807065521315e-01  8.4970271621068516e-01 
 8.6082096354757154e-01  8.7208469167613445e-01  8.8349580419323670e-01  8.9505622960405307e-01 
 9.0676792164799291e-01  9.1863285962888652e-01  9.3065304874949262e-01  9.4283052045038163e-01 
 9.5516733275325638e-01  9.6766557060875535e-01  9.8032734624882478e-01  9.9315479954368424e-01 
 1.0061500983634712e+00  1.0193154389446160e+00  1.0326530462610120e+00  1.0461651744000400e+00 
 1.0598541069435161e+00  1.0737221573536209e+00  1.0877716693638810e+00  1.1020050173752653e+00 
 1.1164246068574648e+00  1.1310328747554217e+00  1.1458322899011799e+00  1.1608253534311230e+00 
 1.1760145992086728e+00  1.1914025942525173e+00  1.2069919391704462e+00  1.2227852685988503e+00 
 1.2387852516479945e+00  1.2549945923530963e+00  1.2714160301313142e+00  1.2880523402447175e+00 
 1.3049063342693112e+00  1.3219808605701997e+00  1.3392788047829671e+00  1.3568030903013557e+00 
 1.3745566787713281e+00  1.3925425705915906e+00  1.4107638054206690e+00  1.4292234626906182e+00 
 1.4479246621274517e+00  1.4668705642783857e+00  1.4860643710459767e+00  1.5055093262292514e+00 
 1.5252087160719194e+00  1.5451658698177453e+00  1.5653841602732144e+00  1.5858670043775354e+00 
 1.6066178637801134e+00  1.6276402454255756e+00  1.6489377021464566e+00  1.6705138332636313e+00 
 1.6923722851946121e+00  1.7145167520698004e+00  1.7369509763568043e+00  1.7596787494929242e+00 
 1.7827039125259136e+00  1.8060303567631277e+00  1.8296620244291621e+00  1.8536029093320974e+00 
 1.8778570575384639e+00  1.9024285680570361e+00  1.9273215935315773e+00  1.9525403409426338e+00 
 1.9780890723185443e+00  2.0039721054557207e+00  2.0301938146483658e+00  2.0567586314277446e+00 
 2.0836710453111187e+00  2.1109356045604892e+00  2.1385569169512619e+00  2.1665396505509715e+00 
 2.1948885345081979e+00  2.2236083598518031e+00  2.2527039803006268e+00  2.2821803130837743e+00 
 2.3120423397716428e+00  2.3422951071178177e+00  2.3729437279119838e+00  2.4039933818440029e+00 
 2.4354493163792954e+00  2.4673168476456557e+00  2.4996013613317212e+00  2.5323083135971451e+00 
 2.5654432319947054e+00  2.5990117164044761e+00  2.6330194399802185e+00  2.6674721501081580e+00 
 2.7023756693783083e+00  2.7377358965684984e+00  2.7735588076412854e+00  2.8098504567539018e+00 
 2.8466169772814256e+00  2.8838645828533336e+00  2.9215995684036207e+00  2.9598283112346571e+00 
 2.9985572720949700e+00  3.0377929962711239e+00  3.0775421146938937e+00  3.1178113450588896e+00 
 3.1586074929618930e+00  3.1999374530489986e+00  3.2418082101818300e+00  3.2842268406179991e+00 
 3.3272005132070106e+00  3.3707364906018129e+00  3.4148421304862056e+00  3.4595248868183055e+00 
 3.5047923110902817e+00  3.5506520536045763e+00  3.5971118647668261e+00  3.6441795963956958e+00 
 3.6918632030498557e+00  3.7401707433723224e+00  3.7891103814523879e+00  3.8386903882053680e+00 
 3.8889191427704164e+00  3.9398051339265892e+00  3.9913569615275137e+00  4.0435833379547521e+00 
 4.0964930895902238e+00  4.1500951583078862e+00  4.2043986029849298e+00  4.2594126010327553e+00 
 4.3151464499479673e+00  4.3716095688836871e+00  4.4288115002414026e+00  4.4867619112836588e+00 
 4.5454705957678483e+00  4.6049474756013833e+00  4.6652026025185140e+00  4.7262461597791052e+00 
 4.7880884638896219e+00  4.8507399663466497e+00  4.9142112554032291e+00  4.9785130578582608e+00 
 5.0436562408694137e+00  5.1096518137896627e+00  5.1765109300279084e+00  5.2442448889339257e+00 
 5.3128651377079823e+00  5.3823832733354449e+00  5.4528110445466940e+00  5.5241603538026904e+00 
 5.5964432593065139e+00  5.6696719770412374e+00  5.7438588828344477e+00  5.8190165144497978e+00 
 5.8951575737059114e+00  5.9722949286230271e+00  6.0504416155977205e+00  6.1296108416060857e+00 
 6.2098159864357587e+00  6.2910706049470928e+00  6.3733884293640193e+00  6.4567833715947902e+00 
 6.5412695255831279e+00  6.6268611696901445e+00  6.7135727691074099e+00  6.8014189783016050e+00 
 6.8904146434911695e+00  6.9805748051553378e+00  7.0719147005760208e+00  7.1644497664129414e+00 
 7.2581956413124704e+00  7.3531681685505870e+00  7.4493833987104425e+00  7.5468575923949315e+00 
 7.6456072229747871e+00  7.7456489793726107e+00  7.8469997688833555e+00  7.9496767200316469e+00 
 8.0536971854666231e+00  8.1590787448945203e+00  8.2658392080497034e+00  8.3739966177045435e+00 
 8.4835692527186968e+00  8.5945756311282757e+00  8.7070345132754348e+00  8.8209649049789256e+00 
 8.9363860607461056e+00  9.0533174870270123e+00  9.1717789455110026e+00  9.2917904564665026e+00 
 9.4133723021245057e+00  9.5365450301063071e+00  9.6613294568960946e+00  9.7877466713589953e+00 
 9.9158180383051580e+00  1.0045565202100383e+01  1.0177010090324179e+01  1.0310174917475511e+01 
 1.0445082188727108e+01  1.0581754703728906e+01  1.0720215560461234e+01  1.0860488159138431e+01 
 1.1002596206163535e+01  1.1146563718134722e+01  1.1292415025904173e+01  1.1440174778690047e+01 
 1.1589867948242238e+01  1.1741519833062689e+01  1.1895156062680883e+01  1.2050802601985291e+01 
 1.2208485755611509e+01  1.2368232172387804e+01  1.2530068849838845e+01  1.2694023138748260e+01 
 1.2860122747781128e+01  1.3028395748166707e+01  1.3198870578442570e+01  1.3371576049260776e+01 
 1.3546541348256955e+01  1.3723796044983064e+01  1.3903370095904739e+01  1.4085293849463989e+01 
 1.4269598051208160e+01  1.4456313848986008e+01  1.4645472798211761e+01  1.4837106867198054e+01 
 1.5031248442558653e+01  1.5227930334681869e+01  1.5427185783275595e+01  1.5629048462984887e+01 
 1.5833552489083100e+01  1.6040732423237326e+01  1.6250623279349576e+01  1.6463260529474091e+01 
 1.6678680109812241e+01  1.6896918426785817e+01  1.7118012363189823e+01  1.7341999284425732e+01 
 1.7568917044816349e+01  1.7798803994003258e+01  1.8031698983428033e+01  1.8267641372898190e+01 
 1.8506671037239123e+01  1.8748828373033017e+01  1.8994154305445981e+01  1.9242690295144488e+01 
 1.9494478345302337e+01  1.9749561008699288e+01  2.0007981394912612e+01  2.0269783177602569e+01 
 2.0535010601893589e+01  2.0803708491851637e+01  2.1075922258059652e+01  2.1351697905292006e+01 
 2.1631082040289467e+01  2.1914121879635804e+01  2.2200865257737526e+01  2.2491360634908013e+01 
 2.2785657105557416e+01  2.3083804406489726e+01  2.3385852925308420e+01  2.3691853708932083e+01 
 2.4001858472221461e+01  2.4315919606719387e+01  2.4634090189505091e+01  2.4956423992164339e+01 
 2.5282975489877010e+01  2.5613799870623353e+01  2.5948953044511153e+01  2.6288491653224497e+01 
 2.6632473079596387e+01  2.6980955457306589e+01  2.7333997680706364e+01  2.7691659414771738e+01 
 2.8054001105187030e+01  2.8421083988560344e+01  2.8792970102772649e+01  2.9169722297462375e+01 
 2.9551404244647138e+01  2.9938080449484442e+01  3.0329816261173239e+01  3.0726677883998072e+01 
 3.1128732388517761e+01  3.1536047722900566e+01  3.1948692724407330e+01  3.2366737131025488e+01 
 3.2790251593254766e+01  3.3219307686047273e+01  3.3653977920903891e+01  3.4094335758128857e+01 
 3.4540455619244774e+01  3.4992412899569963e+01  3.5450283980960506e+01  3.5914146244718935e+01 
 3.6384078084671870e+01  3.6860158920418733e+01  3.7342469210753897e+01  3.7831090467264360e+01 
 3.8326105268105451e+01  3.8827597271956691e+01  3.9335651232160330e+01  3.9850353011044930e+01 
 4.0371789594436024e+01  4.0900049106357336e+01  4.1435220823923700e+01  4.1977395192429142e+01 
 4.2526663840632359e+01  4.3083119596242220e+01  4.3646856501605846e+01  4.4217969829601977e+01 
 4.4796556099742354e+01  4.5382713094483726e+01  4.5976539875753318e+01  4.6578136801690519e+01 
 4.7187605543607688e+01  4.7805049103172777e+01  4.8430571829816955e+01  4.9064279438369816e+01 
 4.9706279026925486e+01  5.0356679094942557e+01  5.1015589561580349e+01  5.1683121784276089e+01 
 5.2359388577564197e+01  5.3044504232142330e+01  5.3738584534186749e+01  5.4441746784920461e+01 
 5.5154109820437462e+01  5.5875794031786221e+01  5.6606921385316163e+01  5.7347615443290159e+01 
 5.8098001384766953e+01  5.8858206026756626e+01  5.9628357845653056e+01  6.0408586998946646e+01 
 6.1199025347221358e+01  6.1999806476439332e+01  6.2811065720517377e+01  6.3632940184198709e+01 
 6.4465568766223612e+01  6.5309092182804292e+01  6.6163652991405826e+01  6.7029395614838819e+01 
 6.7906466365667143e+01  6.8795013470935231e+01  6.9695187097218707e+01  7.0607139376002891e+01 
 7.1531024429393440e+01  7.2466998396163305e+01  7.3415219458140598e+01  7.4375847866941641e+01 
 7.5349045971053911e+01  7.6334978243273298e+01  7.7333811308500444e+01  7.8345713971900679e+01 
 7.9370857247432539e+01  8.0409414386749674e+01  8.1461560908480209e+01  8.2527474627890683e+01 
 8.3607335686936636e+01  8.4701326584707232e+01  8.5809632208267999e+01  8.6932439863907192e+01 
 8.8069939308790993e+01  8.9222322783032951e+01  9.0389785042183007e+01  9.1572523390141640e+01 
 9.2770737712504655e+01  9.3984630510344402e+01  9.5214406934432930e+01  9.6460274819912868e+01 
 9.7722444721422150e+01  9.9001129948678241e+01  1.0029654660252791e+02  1.0160891361146908e+02 
 1.0293845276864946e+02  1.0428538876935120e+02  1.0564994924896428e+02  1.0703236482145753e+02 
 1.0843286911835298e+02  1.0985169882821017e+02  1.1128909373662700e+02  1.1274529676676411e+02 
 1.1422055402039955e+02  1.1571511481952037e+02  1.1722923174845887e+02 
  </PP_R>
  <PP_RAB>
 6.0340654836966132e-07  6.1130204301911857e-07  6.1930084916880398e-07  6.2740431863599491e-07 
 6.3561382092631835e-07  6.4393074346520121e-07  6.5235649183234659e-07  6.6089248999928306e-07 
 6.6954018057001767e-07  6.7830102502483907e-07  6.8717650396731158e-07  6.9616811737450108e-07 
 7.0527738485047440e-07  7.1450584588311594e-07  7.2385506010430533e-07  7.3332660755349674e-07 
 7.4292208894475301e-07  7.5264312593726742e-07  7.6249136140942863e-07  7.7246845973647117e-07 
 7.8257610707175891e-07  7.9281601163174863e-07  8.0318990398468289e-07  8.1369953734306100e-07 
 8.2434668785993278e-07  8.3513315492907798e-07  8.4606076148910393e-07  8.5713135433152778e-07 
 8.6834680441288946e-07  8.7970900717094616e-07  8.9121988284500722e-07  9.0288137680045859e-07 