  <PP_INFO>

############################################################
#    Opium Parameter File                                  #
############################################################
#-----------------------------------------------------------
#Command line   : /usr/local/bin/opium mg mg.log all ke rpt upf plot wp 
 
#Opium version  : 3.8 
#Compile Host   : vagvlan567.217.wlan.design.upenn.edu 
#Compile OS     : Darwin 14.1.0 i386 
#Compile Date   : Wed Mar 18 18:57:27 EDT 2015 
#-----------------------------------------------------------
#Execution Host : vagvlan567.0723.wlan.wireless-pennnet.upenn.edu 
#Execution Date : Wed Oct 14 15:27:15 2015
 
#-----------------------------------------------------------
############################################################
[Atom]
Mg
4
100   2.00   -
200   2.00   -
210   6.00   -
300   2.00   -

[Pseudo]
2   1.85 1.90
opt             # no one uses kerker, use opt for real potentials

[Optinfo]
7.07     10
7.07     10
conmax             # when "NEW" minimization breaks, use conmax

[Configs]
3
#
210   6.00   -
300   1.00   -

#
210   6.00   -
300   0.50   -

#
210   6.00   -
300   0.00   -

[XC]
hf
############################################################
  </PP_INFO>



<PP_HEADER>
   0         Version Number
   Mg        Element
   NC        Norm - Conserving pseudopotential
    F      Nonlinear Core Correction
SLA  PZ   NOGX NOGC    PZ   Exchange-Correlation functional
 8          Z valence
 0          Total energy
 0.000000   0.000000     Suggested cutoff for wfc and rho
 1           Max angular momentum component
 1140           Number of points in mesh
 2  1     Number of Wavefuncitons, Number of Projectors
 Wavefunctions         nl  l   occ
                       S  0  2.000000
                       P  1  6.000000
</PP_HEADER>
<PP_MESH>
  <PP_R>
 4.3679023236814945e-05  4.4250557462274684e-05  4.4829570137266154e-05  4.5416159116309545e-05 
 4.6010423534338435e-05  4.6612463823453929e-05  4.7222381729897728e-05  4.7840280331247713e-05 
 4.8466264053838168e-05  4.9100438690408118e-05  4.9742911417980549e-05  5.0393790815975560e-05 
 5.1053186884560555e-05  5.1721211063240576e-05  5.2397976249691818e-05  5.3083596818841458e-05 
 5.3778188642197579e-05  5.4481869107431526e-05  5.5194757138216754e-05  5.5916973214327192e-05 
 5.6648639391998654e-05  5.7389879324556612e-05  5.8140818283313886e-05  5.8901583178741860e-05 
 5.9672302581918458e-05  6.0453106746257252e-05  6.1244127629520408e-05  6.2045498916119904e-05 
 6.2857356039710502e-05  6.3679836206078405e-05  6.4513078416329308e-05  6.5357223490379934e-05 
 6.6212414090757014e-05  6.7078794746707325e-05  6.7956511878623850e-05  6.8845713822790925e-05 
 6.9746550856453516e-05  7.0659175223214386e-05  7.1583741158763657e-05  7.2520404916944989e-05 
 7.3469324796162849e-05  7.4430661166135449e-05  7.5404576494997219e-05  7.6391235376756830e-05 
 7.7390804559113643e-05  7.8403452971638552e-05  7.9429351754323465e-05  8.0468674286504415e-05 
 8.1521596216162996e-05  8.2588295489611474e-05  8.3668952381565768e-05  8.4763749525612719e-05 
 8.5872871945075449e-05  8.6996507084282637e-05  8.8134844840247152e-05  8.9288077594759139e-05 
 9.0456400246898913e-05  9.1640010245975384e-05  9.2839107624895497e-05  9.4053895033970375e-05 
 9.5284577775163289e-05  9.6531363836786723e-05  9.7794463928652540e-05  9.9074091517682586e-05 
 1.0037046286398504e-04  1.0168379705740293e-04  1.0301431605454079e-04  1.0436224471627600e-04 
 1.0572781084576041e-04  1.0711124522692016e-04  1.0851278166345840e-04  1.0993265701836867e-04 
 1.1137111125396539e-04  1.1282838747243807e-04  1.1430473195693607e-04  1.1580039421319111e-04 
 1.1731562701168431e-04  1.1885068643036503e-04  1.2040583189792873e-04  1.2198132623766059e-04 
 1.2357743571185398e-04  1.2519443006680893e-04  1.2683258257842000e-04  1.2849217009836065e-04 
 1.3017347310087174e-04  1.3187677573016243e-04  1.3360236584843089e-04  1.3535053508451428e-04 
 1.3712157888317434e-04  1.3891579655502827e-04  1.4073349132713304e-04  1.4257497039423141e-04 
 1.4444054497066863e-04  1.4633053034298837e-04  1.4824524592321688e-04  1.5018501530284447e-04 
 1.5215016630751318e-04  1.5414103105241989e-04  1.5615794599844503e-04  1.5820125200901491e-04 
 1.6027129440770858e-04  1.6236842303661838e-04  1.6449299231547387e-04  1.6664536130154011e-04 
 1.6882589375029821e-04  1.7103495817692206e-04  1.7327292791855759e-04  1.7554018119741768e-04 
 1.7783710118470270e-04  1.8016407606535751e-04  1.8252149910367524e-04  1.8490976870976034e-04 
 1.8732928850686054e-04  1.8978046739958024e-04  1.9226371964298648e-04  1.9477946491261845e-04 
 1.9732812837541466e-04  1.9991014076156633e-04  2.0252593843731218e-04  2.0517596347868525e-04 
 2.0786066374622487e-04  2.1058049296066627e-04  2.1333591077961982e-04  2.1612738287525522e-04 
 2.1895538101300059e-04  2.2182038313127214e-04  2.2472287342224686e-04  2.2766334241369215e-04 
 2.3064228705186609e-04  2.3366021078550275e-04  2.3671762365089609e-04  2.3981504235809727e-04 
 2.4295299037824017e-04  2.4613199803200840e-04  2.4935260257926204e-04  2.5261534830983484e-04 
 2.5592078663552097e-04  2.5926947618326476e-04  2.6266198288957000e-04  2.6609888009614466e-04 
 2.6958074864679647e-04  2.7310817698559782e-04  2.7668176125633361e-04  2.8030210540325114e-04 
 2.8396982127312786e-04  2.8768552871867543e-04  2.9144985570329587e-04  2.9526343840720895e-04 
 2.9912692133496842e-04  3.0304095742438454e-04  3.0700620815687240e-04  3.1102334366924303e-04 
 3.1509304286695940e-04  3.1921599353887219e-04  3.2339289247345797e-04  3.2762444557657850e-04 
 3.3191136799077896e-04  3.3625438421615111e-04  3.4065422823277369e-04  3.4511164362475765e-04 
 3.4962738370591332e-04  3.5420221164706220e-04  3.5883690060501506e-04  3.6353223385323665e-04 
 3.6828900491422137e-04  3.7310801769360004e-04  3.7799008661600205e-04  3.8293603676269522e-04 
 3.8794670401102603e-04  3.9302293517568578e-04  3.9816558815182240e-04  4.0337553206002937e-04 
 4.0865364739322728e-04  4.1400082616547016e-04  4.1941797206269672e-04  4.2490600059545729e-04 
 4.3046583925363571e-04  4.3609842766319847e-04  4.4180471774499269e-04  4.4758567387562383e-04 
 4.5344227305043711e-04  4.5937550504863240e-04  4.6538637260053905e-04  4.7147589155707974e-04 
 4.7764509106145185e-04  4.8389501372305489e-04  4.9022671579369403e-04  4.9664126734608974e-04 
 5.0313975245472081e-04  5.0972326937903797e-04  5.1639293074907098e-04  5.2314986375346609e-04 
 5.2999521032998239e-04  5.3693012735848424e-04  5.4395578685645547e-04  5.5107337617707269e-04 
 5.5828409820987191e-04  5.6558917158403867e-04  5.7298983087436008e-04  5.8048732680987048e-04 
 5.8808292648522781e-04  5.9577791357485544e-04  6.0357358854988617e-04  6.1147126889794540e-04 
 6.1947228934580917e-04  6.2757800208497678e-04  6.3578977700019270e-04  6.4410900190096281e-04 
 6.5253708275609583e-04  6.6107544393131674e-04  6.6972552842998502e-04  6.7848879813696937e-04 
 6.8736673406570787e-04  6.9636083660850267e-04  7.0547262579009071e-04  7.1470364152453024e-04 
 7.2405544387545118e-04  7.3352961331970927e-04  7.4312775101448953e-04  7.5285147906790743e-04 
 7.6270244081314703e-04  7.7268230108618974e-04  7.8279274650717458e-04  7.9303548576544229e-04 
 8.0341224990830486e-04  8.1392479263360073e-04  8.2457489058607159e-04  8.3536434365762005e-04 
 8.4629497529149398e-04  8.5736863279045606e-04  8.6858718762898004e-04  8.7995253576953478e-04 
 8.9146659798300680e-04  9.0313132017331467e-04  9.1494867370627171e-04  9.2692065574275157e-04 
 9.3904928957621269e-04  9.5133662497464029e-04  9.6378473852696189e-04  9.7639573399399548e-04 
 9.8917174266399026e-04  1.0021149237128206e-03  1.0152274645688880e-03  1.0285115812828072e-03 
 1.0419695189019201e-03  1.0556035518497168e-03  1.0694159843102136e-03  1.0834091506173725e-03 
 1.0975854156496042e-03  1.1119471752294402e-03  1.1264968565284318e-03  1.1412369184773481e-03 
 1.1561698521817415e-03  1.1712981813429496e-03  1.1866244626846077e-03  1.2021512863847406e-03 
 1.2178812765135086e-03  1.2338170914766829e-03  1.2499614244649206e-03  1.2663170039089232e-03 
 1.2828865939405424e-03  1.2996729948599316e-03  1.3166790436087994e-03  1.3339076142498622e-03 
 1.3513616184525608e-03  1.3690440059851497e-03  1.3869577652132067e-03  1.4051059236046789e-03 
 1.4234915482415282e-03  1.4421177463380778e-03  1.4609876657661381e-03  1.4801044955870051e-03 
 1.4994714665904180e-03  1.5190918518405722e-03  1.5389689672292734e-03  1.5591061720363309e-03 
 1.5795068694972861e-03  1.6001745073785658e-03  1.6211125785601623e-03  1.6423246216259399e-03 
 1.6638142214616639e-03  1.6855850098608544e-03  1.7076406661385663e-03  1.7299849177532054e-03 
 1.7526215409364764e-03  1.7755543613315742e-03  1.7987872546397290e-03  1.8223241472752052e-03 
 1.8461690170288782e-03  1.8703258937404902e-03  1.8947988599797017e-03  1.9195920517360535e-03 
 1.9447096591179635e-03  1.9701559270608616e-03  1.9959351560445947e-03  2.0220517028202187e-03 
 2.0485099811462975e-03  2.0753144625348416e-03  2.1024696770070034e-03  2.1299802138586618e-03 
 2.1578507224360201e-03  2.1860859129213634e-03  2.2146905571290864e-03  2.2436694893121422e-03 
 2.2730276069790434e-03  2.3027698717215483e-03  2.3329013100531894e-03  2.3634270142587599e-03 
 2.3943521432549255e-03  2.4256819234620905e-03  2.4574216496876808e-03  2.4895766860209673e-03 
 2.5221524667396245e-03  2.5551544972281276e-03  2.5885883549081772e-03  2.6224596901812977e-03 
 2.6567742273837652e-03  2.6915377657540413e-03  2.7267561804128499e-03  2.7624354233560938e-03 
 2.7985815244607466e-03  2.8352005925039274e-03  2.8722988161952938e-03  2.9098824652229456e-03 
 2.9479578913130214e-03  2.9865315293031553e-03  3.0256098982299746e-03  3.0651996024308389e-03 
 3.1053073326599893e-03  3.1459398672192876e-03  3.1871040731037870e-03  3.2288069071622575e-03 
 3.2710554172729108e-03  3.3138567435345117e-03  3.3572181194730694e-03  3.4011468732643223e-03 
 3.4456504289722151e-03  3.4907363078035890e-03  3.5364121293792686e-03  3.5826856130218160e-03 
 3.6295645790601024e-03  3.6770569501509650e-03  3.7251707526181547e-03  3.7739141178088037e-03 
 3.8232952834676426e-03  3.8733225951292001e-03  3.9240045075282200e-03  3.9753495860285204e-03 
 4.0273665080705753e-03  4.0800640646380159e-03  4.1334511617433277e-03  4.1875368219329882e-03 
 4.2423301858122977e-03  4.2978405135901650e-03  4.3540771866441069e-03  4.4110497091057197e-03 
 4.4687677094668917e-03  4.5272409422070633e-03  4.5864792894417397e-03  4.6464927625925962e-03 
 4.7072915040794333e-03  4.7688857890342690e-03  4.8312860270378613e-03  4.8945027638789499e-03 
 4.9585466833365292e-03  5.0234286089854089e-03  5.0891595060254527e-03  5.1557504831347073e-03 
 5.2232127943467972e-03  5.2915578409528825e-03  5.3607971734285081e-03  5.4309424933856598e-03 
 5.5020056555503613e-03  5.5739986697661628e-03  5.6469337030238048e-03  5.7208230815175070e-03 
 5.7956792927280967e-03  5.8715149875334357e-03  5.9483429823464426e-03  6.0261762612810960e-03 
 6.1050279783467906e-03  6.1849114596713812e-03  6.2658402057533492e-03  6.3478278937433913e-03 
 6.4308883797559195e-03  6.5150357012107628e-03  6.6002840792055255e-03  6.6866479209189899e-03 
 6.7741418220459574e-03  6.8627805692639647e-03  6.9525791427322578e-03  7.0435527186234912e-03 
 7.1357166716885011e-03  7.2290865778547242e-03  7.3236782168585287e-03  7.4195075749120465e-03 
 7.5165908474048686e-03  7.6149444416411154e-03  7.7145849796123054e-03  7.8155293008065081e-03 
 7.9177944650542700e-03  8.0213977554117345e-03  8.1263566810815674e-03  8.2326889803720164e-03 
 8.3404126236947471e-03  8.4495458166018705e-03  8.5601070028627352e-03  8.6721148675809653e-03 
 8.7855883403522919e-03  8.9005465984636940e-03  9.0170090701343908e-03  9.1349954377992950e-03 
 9.2545256414353592e-03  9.3756198819314931e-03  9.4982986245025543e-03  9.6225826021480287e-03 
 9.7484928191559402e-03  9.8760505546526475e-03  1.0005277366199055e-02  1.0136195093433871e-02 
 1.0268825861764599e-02  1.0403192086106766e-02  1.0539316474672088e-02  1.0677222032806223e-02 
 1.0816932066876722e-02  1.0958470188211869e-02  1.1101860317091044e-02  1.1247126686787318e-02 
 1.1394293847662900e-02  1.1543386671318255e-02  1.1694430354795443e-02  1.1847450424836467e-02 
 1.2002472742197366e-02  1.2159523506018741e-02  1.2318629258253477e-02  1.2479816888152388e-02 
 1.2643113636808577e-02  1.2808547101761212e-02  1.2976145241659623e-02  1.3145936380988356e-02 
 1.3317949214854076e-02  1.3492212813835116e-02  1.3668756628894463e-02  1.3847610496357061e-02 
 1.4028804642952192e-02  1.4212369690921907e-02  1.4398336663196190e-02  1.4586736988635988e-02 
 1.4777602507344710e-02  1.4970965476049298e-02  1.5166858573551684e-02  1.5365314906251591e-02 
 1.5566368013741590e-02  1.5770051874475371e-02  1.5976400911510206e-02  1.6185449998324448e-02 
 1.6397234464711346e-02  1.6611790102749786e-02  1.6829153172853255e-02  1.7049360409897948e-02 
 1.7272449029431043e-02  1.7498456733960211e-02  1.7727421719325436e-02  1.7959382681154223e-02 
 1.8194378821401180e-02  1.8432449854973335e-02  1.8673636016441991e-02  1.8917978066842488e-02 
 1.9165517300562897e-02  1.9416295552322889e-02  1.9670355204243886e-02  1.9927739193011749e-02 
 2.0188491017133190e-02  2.0452654744287077e-02  2.0720275018772043e-02  2.0991397069051440e-02 
 2.1266066715397061e-02  2.1544330377632884e-02  2.1826235082980112e-02  2.2111828474004919e-02 
 2.2401158816670125e-02  2.2694275008492290e-02  2.2991226586805441e-02  2.3292063737133106e-02 
 2.3596837301669709e-02  2.3905598787873055e-02  2.4218400377169186e-02  2.4535294933771195e-02 
 2.4856336013613384e-02  2.5181577873402361e-02  2.5511075479786555e-02  2.5844884518645639e-02 
 2.6183061404501700e-02  2.6525663290053344e-02  2.6872748075834646e-02  2.7224374420000506e-02 
 2.7580601748239991e-02  2.7941490263819427e-02  2.8307100957756903e-02  2.8677495619129901e-02 
 2.9052736845517721e-02  2.9432888053580755e-02  2.9818013489777969e-02  3.0208178241224713e-02 
 3.0603448246692606e-02  3.1003890307753360e-02  3.1409572100068388e-02  3.1820562184826137e-02 
 3.2236930020329173e-02  3.2658745973732625e-02  3.3086081332936619e-02  3.3519008318633949e-02 
 3.3957600096515606e-02  3.4401930789635951e-02  3.4852075490939667e-02  3.5308110275952667e-02 
 3.5770112215639020e-02  3.6238159389426171e-02  3.6712330898400432e-02  3.7192706878675423e-02 
 3.7679368514935148e-02  3.8172398054154441e-02  3.8671878819498885e-02  3.9177895224406643e-02 
 3.9690532786854499e-02  4.0209878143810641e-02  4.0736019065876525e-02  4.1269044472120174e-02 
 4.1809044445103923e-02  4.2356110246108469e-02  4.2910334330556250e-02  4.3471810363636641e-02 
 4.4040633236135600e-02  4.4616899080472429e-02  4.5200705286946398e-02  4.5792150520195953e-02 
 4.6391334735873126e-02  4.6998359197536532e-02  4.7613326493764957e-02  4.8236340555495159e-02 
 4.8867506673586386e-02  4.9506931516614845e-02  5.0154723148900904e-02  5.0810991048772215e-02 
 5.1475846127065898e-02  5.2149400745872494e-02  5.2831768737525764e-02  5.3523065423840395e-02 
 5.4223407635601732e-02  5.4932913732310434e-02  5.5651703622185550e-02  5.6379898782429251e-02 
 5.7117622279756801e-02  5.7864998791195138e-02  5.8622154625153439e-02  5.9389217742769791e-02 
 6.0166317779536758e-02  6.0953586067210110e-02  6.1751155656004260e-02  6.2559161337077993e-02 
 6.3377739665314556e-02  6.4207028982399716e-02  6.5047169440201891e-02  6.5898303024457955e-02 
 6.6760573578769494e-02  6.7634126828912469e-02  6.8519110407465292e-02  6.9415673878759077e-02 
 7.0323968764154407e-02  7.1244148567648727e-02  7.2176368801818935e-02  7.3120787014103461e-02 
 7.4077562813427852e-02  7.5046857897179478e-02  7.6028836078534515e-02  7.7023663314142801e-02 
 7.8031507732174946e-02  7.9052539660736373e-02  8.0086931656653162e-02  8.1134858534634549e-02 
 8.2196497396817197e-02  8.3272027662695439e-02  8.4361631099444154e-02  8.5465491852637521e-02 
 8.6583796477370134e-02  8.7716733969785229e-02  8.8864495799015522e-02  9.0027275939541948e-02 
 9.1205270903975788e-02  9.2398679776269851e-02  9.3607704245363799e-02  9.4832548639270611e-02 
 9.6073419959608122e-02  9.7330527916582824e-02  9.8604084964431502e-02  9.9894306337326433e-02 
 1.0120141008575047e-01  1.0252561711334816e-01  1.0386715121425899e-01  1.0522623911093880e-01 
 1.0660311049247699e-01  1.0799799805341410e-01  1.0941113753306796e-01  1.1084276775537398e-01 
 1.1229313066924716e-01  1.1376247138947197e-01  1.1525103823812728e-01  1.1675908278655356e-01 
 1.1828685989786858e-01  1.1983462777004052e-01  1.2140264797952359e-01  1.2299118552546524e-01 
 1.2460050887449163e-01  1.2623089000607904e-01  1.2788260445851926e-01  1.2955593137548591e-01 
 1.3125115355321065e-01  1.3296855748827635e-01  1.3470843342603558e-01  1.3647107540966294e-01 
 1.3825678132984912e-01  1.4006585297514432e-01  1.4189859608296260e-01  1.4375532039125130e-01 
 1.4563633969083767e-01  1.4754197187846038e-01  1.4947253901049470e-01  1.5142836735738091e-01 
 1.5340978745876468e-01  1.5541713417935912e-01  1.5745074676553769e-01  1.5951096890266761e-01 
 1.6159814877319365e-01  1.6371263911548159e-01  1.6585479728343194e-01  1.6802498530687368e-01 
 1.7022356995274798e-01  1.7245092278709287e-01  1.7470742023783895e-01  1.7699344365842551e-01 
 1.7930937939225186e-01  1.8165561883796913e-01  1.8403255851562797e-01  1.8644060013369126e-01 
 1.8888015065692385e-01  1.9135162237517045e-01  1.9385543297303379e-01  1.9639200560046433e-01 
 1.9896176894427328e-01  2.0156515730058208e-01  2.0420261064821921e-01  2.0687457472307791e-01 
 2.0958150109344628e-01  2.1232384723632369e-01  2.1510207661473535e-01  2.1791665875605867e-01 
 2.2076806933137486e-01  2.2365679023585702e-01  2.2658330967021387e-01  2.2954812222319512e-01 
 2.3255172895517887e-01  2.3559463748285167e-01  2.3867736206499710e-01  2.4180042368940668e-01 
 2.4496435016092821e-01  2.4816967619066577e-01  2.5141694348634741e-01  2.5470670084387487e-01 
 2.5803950424007155e-01  2.6141591692664373e-01  2.6483650952537174e-01  2.6830186012454604e-01 
 2.7181255437666579e-01  2.7536918559741536e-01  2.7897235486593669e-01  2.8262267112641098e-01 
 2.8632075129097506e-01  2.9006722034397830e-01  2.9386271144760778e-01  2.9770786604889360e-01 
 3.0160333398811517e-01  3.0554977360862584e-01  3.0954785186811440e-01  3.1359824445132251e-01 
 3.1770163588423700e-01  3.2185871964977658e-01  3.2607019830499190e-01  3.3033678359979940e-01 
 3.3465919659726873e-01  3.3903816779548418e-01  3.4347443725100080e-01  3.4796875470391520e-01 
 3.5252187970457455e-01  3.5713458174193941e-01  3.6180764037363361e-01  3.6654184535768808e-01 
 3.7133799678601309e-01  3.7619690521961524e-01  3.8111939182558457e-01  3.8610628851587347e-01 
 3.9115843808789186e-01  3.9627669436694196e-01  4.0146192235051698e-01  4.0671499835448749e-01 
 4.1203681016120092e-01  4.1742825716951909e-01  4.2289025054681845e-01  4.2842371338298002e-01 
 4.3402958084639315e-01  4.3970880034200172e-01  4.4546233167141835e-01  4.5129114719513014e-01 
 4.5719623199683451e-01  4.6317858404991757e-01  4.6923921438611488e-01  4.7537914726637820e-01 
 4.8159942035397796e-01  4.8790108488987066e-01  4.9428520587036151e-01  5.0075286222709114e-01 
 5.0730514700937734e-01  5.1394316756894354e-01  5.2066804574706327e-01  5.2748091806415454e-01 
 5.3438293591185437e-01  5.4137526574760630e-01  5.4845908929179510e-01  5.5563560372745990e-01 
 5.6290602190262218e-01  5.7027157253525573e-01  5.7773350042094929e-01  5.8529306664327563e-01 
 5.9295154878691869e-01  6.0071024115358895e-01  6.0857045498076257e-01  6.1653351866328443e-01 
 6.2460077797786995e-01  6.3277359631054386e-01  6.4105335488705673e-01  6.4944145300631451e-01 
 6.5793930827686375e-01  6.6654835685647107e-01  6.7527005369483672e-01  6.8410587277948476e-01 
 6.9305730738487059e-01  7.0212587032474805e-01  7.1131309420783928e-01  7.2062053169684415e-01 
 7.3004975577085240e-01  7.3960235999117507e-01  7.4927995877066123e-01  7.5908418764653851e-01 
 7.6901670355682195e-01  7.7907918512034058e-01  7.8927333292042834e-01  7.9960086979232659e-01 
 8.1006354111434709e-01  8.2066311510284562e-01  8.3140138311105405e-01  8.4228015993182392e-01 
 8.5330128410433070e-01  8.6446661822479065e-01  8.7577804926124470e-01  8.8723748887246046e-01 
 8.9884687373100824e-01  9.1060816585055748e-01  9.2252335291747112e-01  9.3459444862672247e-01 
 9.4682349302221702e-01  9.5921255284156370e-01  9.7176372186535953e-01  9.8447912127104209e-01 
 9.9736089999137512e-01  1.0104112350776220e+00  1.0236323320674734e+00  1.0370264253577883e+00 
 1.0505957785822120e+00  1.0643426849937356e+00  1.0782694678522617e+00  1.0923784808172405e+00 
 1.1066721083454436e+00  1.1211527660939440e+00  1.1358229013283683e+00  1.1506849933364836e+00 
 1.1657415538472142e+00  1.1809951274551227e+00  1.1964482920504538e+00  1.2121036592548042e+00 
 1.2279638748624924e+00  1.2440316192877052e+00  1.2603096080174934e+00  1.2768005920706951e+00 
 1.2935073584628658e+00  1.3104327306772896e+00  1.3275795691421541e+00  1.3449507717139717e+00 
 1.3625492741673220e+00  1.3803780506910055e+00  1.3984401143906890e+00  1.4167385177981275e+00 
 1.4352763533870510e+00  1.4540567540957909e+00  1.4730828938567688e+00  1.4923579881328883e+00 
 1.5118852944609589e+00  1.5316681130022263e+00  1.5517097871001093e+00  1.5720137038452320e+00 
 1.5925832946478489e+00  1.6134220358177638e+00  1.6345334491518322e+00  1.6559211025291551e+00 
 1.6775886105140581e+00  1.6995396349669607e+00  1.7217778856632417e+00  1.7443071209201977e+00 
 1.7671311482322090e+00  1.7902538249142144e+00  1.8136790587536111e+00  1.8374108086706655e+00 
 1.8614530853876003e+00  1.8858099521064045e+00  1.9104855251955248e+00  1.9354839748855435e+00 
 1.9608095259739569e+00  1.9864664585391758e+00  2.0124591086638710e+00  2.0387918691677771e+00 
 2.0654691903500946e+00  2.0924955807415979e+00  2.1198756078665881e+00  2.1476138990148170e+00 
 2.1757151420235084e+00  2.2041840860696138e+00  2.2330255424724368e+00  2.2622443855067544e+00 
 2.2918455532265871e+00  2.3218340482997255e+00  2.3522149388532156e+00  2.3829933593298711e+00 
 2.4141745113560087e+00  2.4457636646205336e+00  2.4777661577655339e+00  2.5101873992885197e+00 
 2.5430328684564740e+00  2.5763081162318620e+00  2.6100187662107550e+00  2.6441705155732351e+00 
 2.6787691360462293e+00  2.7138204748789447e+00  2.7493304558310694e+00  2.7853050801739023e+00 
 2.8217504277045804e+00  2.8586726577735786e+00  2.8960780103256645e+00  2.9339728069544351e+00 
 2.9723634519707205e+00  3.0112564334849021e+00  3.0506583245034236e+00  3.0905757840396482e+00 
 3.1310155582392447e+00  3.1719844815203033e+00  3.2134894777283698e+00  3.2555375613065873e+00 
 3.2981358384811603e+00  3.3412915084623189e+00  3.3850118646610046e+00  3.4293042959214741e+00 
 3.4741762877700300e+00  3.5196354236800946e+00  3.5656893863538337e+00  3.6123459590205527e+00 
 3.6596130267520852e+00  3.7074985777953660e+00  3.7560107049224989e+00  3.8051576067984327e+00 
 3.8549475893665588e+00  3.9053890672524356e+00  3.9564905651858822e+00  4.0082607194416751e+00 
 4.0607082792991029e+00  4.1138421085206103e+00  4.1676711868497991e+00  4.2222046115290270e+00 
 4.2774515988368584e+00  4.3334214856456414e+00  4.3901237309994618e+00  4.4475679177127398e+00 
 4.5057637539897533e+00  4.5647210750653446e+00  4.6244498448671072e+00  4.6849601576992832e+00 
 4.7462622399487691e+00  4.8083664518133684e+00  4.8712832890527018e+00  4.9350233847620109e+00 
 4.9995975111691777e+00  5.0650165814552581e+00  5.1312916515988336e+00  5.1984339222445000e+00 
 5.2664547405958011e+00  5.3353656023329350e+00  5.4051781535555490e+00  5.4759041927509609e+00 
 5.5475556727881292e+00  5.6201447029377185e+00  5.6936835509185926e+00  5.7681846449710887e+00 
 5.8436605759574327e+00  5.9201240994895814e+00  5.9975881380850113e+00  6.0760657833506180e+00 
 6.1555702981952356e+00  6.2361151190711004e+00  6.3177138582446455e+00  6.4003803060970048e+00 
 6.4841284334546181e+00  6.5689723939503368e+00  6.6549265264154256e+00  6.7420053573028467e+00 
 6.8302236031422758e+00  6.9195961730272293e+00  7.0101381711347335e+00  7.1018648992779658e+00 
 7.1947918594923017e+00  7.2889347566551921e+00  7.3843095011403408e+00  7.4809322115065404e+00 
 7.5788192172218265e+00  7.6779870614231456e+00  7.7784525037121979e+00  7.8802325229878463e+00 
 7.9833443203155952e+00  8.0878053218346100e+00  8.1936331817027739e+00  8.3008457850802859e+00 
 8.4094612511522904e+00  8.5194979361910725e+00  8.6309744366582990e+00  8.7439095923478760e+00 
 8.8583224895699093e+00  8.9742324643763460e+00  9.0916591058288017e+00  9.2106222593091722e+00 
 9.3311420298735541e+00  9.4532387856499884e+00  9.5769331612808219e+00  9.7022460614099391e+00 
 9.8291986642157170e+00  9.9578124249901929e+00  1.0088109079765047e+01  1.0220110648985058e+01 
 1.0353839441229601e+01  1.0489318056982849e+01  1.0626569392453320e+01  1.0765616643443378e+01 
 1.0906483309269388e+01  1.1049193196733150e+01  1.1193770424145306e+01  1.1340239425401402e+01 
 1.1488624954111257e+01  1.1638952087782394e+01  1.1791246232058221e+01  1.1945533125011551e+01 
 1.2101838841494532e+01  1.2260189797545273e+01  1.2420612754852238e+01  1.2583134825277030e+01 
 1.2747783475436377e+01  1.2914586531344026e+01  1.3083572183113439e+01  1.3254768989721967e+01 
 1.3428205883837387e+01  1.3603912176707610e+01  1.3781917563114320e+01  1.3962252126391492e+01 
 1.4144946343509538e+01  1.4330031090225974e+01  1.4517537646303524e+01  1.4707497700796438e+01 
 1.4899943357406082e+01  1.5094907139906411e+01  1.5292421997640721e+01  1.5492521311090075e+01 
 1.5695238897514704e+01  1.5900609016669200e+01  1.6108666376592499e+01  1.6319446139473630e+01 
 1.6532983927594188e+01  1.6749315829348614e+01  1.6968478405343191e+01  1.7190508694574891e+01 
 1.7415444220691047e+01  1.7643322998330941e+01  1.7874183539550373e+01  1.8108064860330270e+01 
 1.8345006487170512e+01  1.8585048463769976e+01  1.8828231357794063e+01  1.9074596267730595e+01 
 1.9324184829835758e+01  1.9577039225170594e+01  1.9833202186729732e+01  2.0092717006663364e+01 
 2.0355627543593734e+01  2.0621978230027334e+01  2.0891814079864108e+01  2.1165180696004924e+01 
 2.1442124278058539e+01  2.1722691630149473e+01  2.2006930168828017e+01  2.2294887931083711e+01 
 2.2586613582463752e+01  2.2882156425297552e+01  2.3181566407028971e+01  2.3484894128657547e+01 
 2.3792190853290236e+01  2.4103508514804801e+01  2.4418899726627050e+01  2.4738417790622439e+01 
 2.5062116706104277e+01  2.5390051178959705e+01  2.5722276630895156e+01  2.6058849208802737e+01 
 2.6399825794249185e+01  2.6745264013089002e+01  2.7095222245203345e+01  2.7449759634366377e+01 
 2.7808936098240707e+01  2.8172812338503590e+01  2.8541449851105700e+01  2.8914910936664061e+01 
 2.9293258710991001e+01  2.9676557115760943e+01  3.0064870929316474e+01  3.0458265777616361e+01 
 3.0856808145326283e+01  3.1260565387054953e+01  3.1669605738737204e+01  3.2083998329166029e+01 
 3.2503813191675498e+01  3.2929121275976584e+01  3.3359994460147810e+01  3.3796505562782805e+01 
 3.4238728355296864e+01  3.4686737574394463e+01  3.5140608934699920e+01  3.5600419141553388e+01 
 3.6066245903974220e+01  3.6538167947793980e+01  3.7016265028961293e+01  3.7500617947020849e+01 
 3.7991308558768495e+01  3.8488419792085558e+01  3.8992035659953650e+01  3.9502241274653088e+01 
 4.0019122862147100e+01  4.0542767776654195e+01  4.1073264515411260e+01  4.1610702733629765e+01 
 4.2155173259647754e+01  4.2706768110280017e+01  4.3265580506369155e+01  4.3831704888540138e+01 
 4.4405236933160978e+01  4.4986273568512281e+01  4.5574912991168354e+01  4.6171254682592625e+01 
 4.6775399425950319e+01  4.7387449323141048e+01  4.8007507812054023e+01  4.8635679684049741e+01 
 4.9272071101669695e+01  4.9916789616578122e+01  5.0569944187738542e+01  5.1231645199828051e+01 
 5.1902004481892597e+01  5.2581135326246375e+01  5.3269152507618479e+01  5.3966172302550113e+01 
 5.4672312509045575e+01  5.5387692466480466e+01  5.6112433075770262e+01  5.6846656819802881e+01 
 5.7590487784138581e+01  5.8344051677980737e+01  5.9107475855420965e+01  5.9880889336962362e+01 
 6.0664422831323925e+01  6.1458208757531168e+01  6.2262381267294920e+01  6.3077076267683339e+01 
 6.3902431444090531e+01  6.4738586283505740e+01  6.5585682098086977e+01  6.6443862049043048e+01 
 6.7313271170828230e+01  6.8194056395653362e+01  6.9086366578317836e+01  6.9990352521366262e+01 
 7.0906167000574627e+01  7.1833964790769613e+01  7.2773902691986024e+01  7.3726139555966313e+01 
 7.4690836313006898e+01  7.5668155999155942e+01  7.6658263783766245e+01  7.7661326997410086e+01 
 7.8677515160157938e+01  7.9707000010227986e+01  8.0749955533010109e+01  8.1806557990470026e+01 
 8.2876985950937851e+01  8.3961420319286631e+01  8.5060044367505682e+01  8.6173043765673967e+01 
 8.7300606613338843e+01  8.8442923471305235e+01  8.9600187393841011e+01  9.0772593961303457e+01 
 9.1960341313192927e+01  9.3163630181638823e+01  9.4382663925323868e+01  9.5617648563852342e+01 
 9.6868792812567179e+01  9.8136308117824441e+01  9.9420408692727520e+01  1.0072131155332987e+02 
 1.0203923655531121e+02  1.0337440643113364e+02  1.0472704682768399e+02  1.0609738634440875e+02 
 1.0748565657194776e+02  1.0889209213127369e+02  1.1031693071334352e+02  1.1176041311926885e+02 
 1.1322278330101194e+02  1.1470428840261410e+02  1.1620517880196360e+02  1.1772570815311018e+02 
  </PP_R>
  <PP_RAB>
 5.6782730207859421e-07  5.7525724700957089e-07  5.8278441178446002e-07  5.9041006851202410e-07 
 5.9813550594639963e-07  6.0596202970490104e-07  6.1389096248867046e-07  6.2192364430622023e-07 
 6.3006143269989620e-07  6.3830570297530553e-07  6.4665784843374712e-07  6.5511928060768223e-07 
 6.6369142949928720e-07  6.7237574382212743e-07  6.8117369124599361e-07  6.9008675864493893e-07 
 6.9911645234856853e-07  7.0826429839660977e-07  7.1753184279681777e-07  7.2692065178625350e-07 