  <PP_INFO>

############################################################
#    Opium Parameter File                                  #
############################################################
#-----------------------------------------------------------
#Command line   : ../../../opium Ga Ga.log all ke rpt upf 
 
#Opium version  : 3.8 
#Compile Host   : vagvlan567.0543.wlan.wireless-pennnet.upenn.edu 
#Compile OS     : Darwin 14.5.0 i386 
#Compile Date   : Wed Jul 13 17:15:36 EDT 2016 
#-----------------------------------------------------------
#Execution Host : vagvlan567.441.wlan.sas.upenn.edu 
#Execution Date : Mon Aug 29 13:46:13 2016
 
#-----------------------------------------------------------
############################################################
[Atom]
Ga                 # chemical symbol (max. 2 characters)
8                 # norb: number of orbitals
100 2.00  -13.0   # reference configuration
200 2.00   -1.4   # reference configuration
210 6.00   -0.4   # reference configuration
300 2.00   -0.1   # reference configuration
310 6.00  -1.0   # reference configuration
400 0.90   -0.4   # reference configuration
410 0.20   -0.1   # reference configuration
320 10.00   -1.4   # reference configuration

[Pseudo]
3  1.87 2.02 2.01 #rc
opt

[Optinfo]
7.07  10    # Qc[sqrt(Ry)]  Nb
7.07  10    # Qc[sqrt(Ry)]  Nb
7.07  10    # Qc[sqrt(Ry)]  Nb

[Configs]
4                 # number of valence configurations
#
400 0.00   -1.4   # test configuration
410 0.00   -0.4   # test configuration
320 10.00   -0.4   # test configuration
#
400 1.00   -1.4   # test configuration
410 0.00   -0.4   # test configuration
320 10.00   -0.4   # test configuration
#
400 2.00 -
410 0.00 -
320 10.00 -
#
400 2.00 -
410 1.00 -
320 10.00 - 

[xc]
hf

[HFsmooth]
1
1e-6
0.0 0.0

#[KBdesign]
#0  # local orbital [0..lmax]
#1  # number of boxes
#au      0.01 1.62 0.47
############################################################
  </PP_INFO>



<PP_HEADER>
   0         Version Number
   Ga        Element
   NC        Norm - Conserving pseudopotential
    F      Nonlinear Core Correction
HF  NOC   NOGX  NOGC     HF  Exchange-Correlation functional
 13          Z valence
 0          Total energy
 0.000000   0.000000     Suggested cutoff for wfc and rho
 2           Max angular momentum component
 1164           Number of points in mesh
 3  2     Number of Wavefuncitons, Number of Projectors
 Wavefunctions         nl  l   occ
                       S  0  0.900000
                       P  1  0.200000
                       D  2  10.000000
</PP_HEADER>
<PP_MESH>
  <PP_R>
 3.1833136784577329e-05  3.2249669157050180e-05  3.2671651800367903e-05  3.3099156030601589e-05 
 3.3532254096983638e-05  3.3971019194118114e-05  3.4415525474350679e-05  3.4865848060300674e-05 
 3.5322063057556970e-05  3.5784247567539909e-05  3.6252479700531743e-05  3.6726838588877376e-05 
 3.7207404400357946e-05  3.7694258351739404e-05  3.8187482722498332e-05  3.8687160868727218e-05 
 3.9193377237222107e-05  3.9706217379754126e-05  4.0225767967527951e-05  4.0752116805829507e-05 
 4.1285352848865234e-05  4.1825566214795550e-05  4.2372848200965052e-05  4.2927291299332045e-05 
 4.3488989212099699e-05  4.4058036867552187e-05  4.4634530436097681e-05  4.5218567346521379e-05 
 4.5810246302451210e-05  4.6409667299038972e-05  4.7016931639859759e-05  4.7632141954032527e-05 
 4.8255402213564685e-05  4.8886817750923413e-05  4.9526495276837405e-05  5.0174542898331032e-05 
 5.0831070136994738e-05  5.1496187947494471e-05  5.2170008736323239e-05  5.2852646380798110e-05 
 5.3544216248305742e-05  5.4244835215799806e-05  5.4954621689553240e-05  5.5673695625169528e-05 
 5.6402178547855259e-05  5.7140193572958218e-05  5.7887865426774179e-05  5.8645320467625993e-05 
 5.9412686707218385e-05  6.0190093832272293e-05  6.0977673226442024e-05  6.1775557992519795e-05 
 6.2583882974930118e-05  6.3402784782518891e-05  6.4232401811640673e-05  6.5072874269547941e-05 
 6.5924344198086497e-05  6.6786955497700866e-05  6.7660853951753751e-05  6.8546187251163919e-05 
 6.9443105019366039e-05  7.0351758837597716e-05  7.1272302270516984e-05  7.2204890892154904e-05 
 7.3149682312208239e-05  7.4106836202675664e-05  7.5076514324842750e-05  7.6058880556620196e-05 
 7.7054100920239137e-05  7.8062343610309801e-05  7.9083779022246547e-05  8.0118579781065098e-05 
 8.1166920770556604e-05  8.2228979162843484e-05  8.3304934448321795e-05  8.4394968465995664e-05 
 8.5499265434208470e-05  8.6618011981776224e-05  8.7751397179528179e-05  8.8899612572260241e-05 
 9.0062852211106675e-05  9.1241312686335106e-05  9.2435193160570633e-05  9.3644695402455048e-05 
 9.4870023820745891e-05  9.6111385498862367e-05  9.7368990229882419e-05  9.8643050551999013e-05 
 9.9933781784438856e-05  1.0124140206385233e-04  1.0256613238117896e-04  1.0390819661899529e-04 
 1.0526782158935178e-04  1.0664523707210451e-04  1.0804067585374838e-04  1.0945437376675882e-04 
 1.1088656972944791e-04  1.1233750578634199e-04  1.1380742714908802e-04  1.1529658223789498e-04 
 1.1680522272351715e-04  1.1833360356978732e-04  1.1988198307670621e-04  1.2145062292409590e-04 
 1.2303978821582388e-04  1.2464974752460692e-04  1.2628077293740011e-04  1.2793314010138015e-04 
 1.2960712827053057e-04  1.3130302035283621e-04  1.3302110295809543e-04  1.3476166644635761e-04 
 1.3652500497699500e-04  1.3831141655841624e-04  1.4012120309843051e-04  1.4195467045527037e-04 
 1.4381212848928296e-04  1.4569389111529705e-04  1.4760027635567520e-04  1.4953160639406037e-04 
 1.5148820762982585e-04  1.5347041073323747e-04  1.5547855070133733e-04  1.5751296691455966e-04 
 1.5957400319408662e-04  1.6166200785995501e-04  1.6377733378992293e-04  1.6592033847910725e-04 
 1.6809138410040099e-04  1.7029083756568144e-04  1.7251907058781917e-04  1.7477645974349834e-04 
 1.7706338653685917e-04  1.7938023746397259e-04  1.8172740407815970e-04  1.8410528305616485e-04 
 1.8651427626519492e-04  1.8895479083083571e-04  1.9142723920585769e-04  1.9393203923992092e-04 
 1.9646961425019260e-04  1.9904039309288923e-04  2.0164481023575396e-04  2.0428330583148263e-04 
 2.0695632579211087e-04  2.0966432186437408e-04  2.1240775170605370e-04  2.1518707896332271e-04 
 2.1800277334910255e-04  2.2085531072244606e-04  2.2374517316895887e-04  2.2667284908227227e-04 
 2.2963883324658379e-04  2.3264362692027661e-04  2.3568773792063334e-04  2.3877168070965854e-04 
 2.4189597648102308e-04  2.4506115324814869e-04  2.4826774593344260e-04  2.5151629645870049e-04 
 2.5480735383669298e-04  2.5814147426394998e-04  2.6151922121475939e-04  2.6494116553639507e-04 
 2.6840788554559201e-04  2.7191996712628289e-04  2.7547800382861392e-04  2.7908259696925636e-04 
 2.8273435573303009e-04  2.8643389727585811e-04  2.9018184682906589e-04  2.9397883780504861e-04 
 2.9782551190431862e-04  3.0172251922395402e-04  3.0567051836746692e-04  3.0967017655610931e-04 
 3.1372216974163465e-04  3.1782718272053550e-04  3.2198590924977546e-04  3.2619905216403627e-04 
 3.3046732349449809e-04  3.3479144458917480e-04  3.3917214623482302e-04  3.4361016878044735e-04 
 3.4810626226242113e-04  3.5266118653124389e-04  3.5727571137995803e-04  3.6195061667424654e-04 
 3.6668669248423013e-04  3.7148473921799340e-04  3.7634556775685405e-04  3.8126999959240489e-04 
 3.8625886696534603e-04  3.9131301300613757e-04  3.9643329187749024e-04  4.0162056891871964e-04 
 4.0687572079199207e-04  4.1219963563048203e-04  4.1759321318846852e-04  4.2305736499339609e-04 
 4.2859301449992498e-04  4.3420109724599733e-04  4.3988256101094473e-04  4.4563836597566600e-04 
 4.5146948488489962e-04  4.5737690321162030e-04  4.6336161932358457e-04  4.6942464465206000e-04 
 4.7556700386275764e-04  4.8178973502900412e-04  4.8809388980717617e-04  4.9448053361443632e-04 
 5.0095074580878887e-04  5.0750561987149420e-04  5.1414626359187038e-04  5.2087379925451135e-04 
 5.2768936382895668e-04  5.3459410916184048e-04  5.4158920217155856e-04  5.4867582504547810e-04 
 5.5585517543973193e-04  5.6312846668162421e-04  5.7049692797468601e-04  5.7796180460641382e-04 
 5.8552435815872460e-04  5.9318586672116888e-04  6.0094762510692879e-04  6.0881094507164528e-04 
 6.1677715553510790e-04  6.2484760280584505e-04  6.3302365080865428e-04  6.4130668131510754e-04 
 6.4969809417707552e-04  6.5819930756330321e-04  6.6681175819908707e-04  6.7553690160908331e-04 
 6.8437621236329470e-04  6.9333118432627705e-04  7.0240333090960580e-04  7.1159418532764599e-04 
 7.2090530085666964e-04  7.3033825109736271e-04  7.3989463024076664e-04  7.4957605333770194e-04 
 7.5938415657171511e-04  7.6932059753559684e-04  7.7938705551151898e-04  7.8958523175483937e-04 
 7.9991684978161553e-04  8.1038365565988437e-04  8.2098741830475142e-04  8.3172992977734129e-04 
 8.4261300558766106e-04  8.5363848500142551e-04  8.6480823135089808e-04  8.7612413234979566e-04 
 8.8758810041232030e-04  8.9920207297636051e-04  9.1096801283092161e-04  9.2288790844784337e-04 
 9.3496377431785487e-04  9.4719765129103075e-04  9.5959160692169647e-04  9.7214773581785318e-04 
 9.8486815999516844e-04  9.9775502923560451e-04  1.0108105214507348e-03  1.0240368430498171e-03 
 1.0374362293126820e-03  1.0510109447674988e-03  1.0647632835734894e-03  1.0786955699086432e-03 
 1.0928101583625120e-03  1.1071094343341372e-03  1.1215958144351927e-03  1.1362717468983939e-03 
 1.1511397119912583e-03  1.1662022224352730e-03  1.1814618238305532e-03  1.1969210950860541e-03 
 1.2125826488554124e-03  1.2284491319784921e-03  1.2445232259287032e-03  1.2608076472661819e-03 
 1.2773051480968929e-03  1.2940185165377421e-03  1.3109505771877758e-03  1.3281041916055429e-03 
 1.3454822587927078e-03  1.3630877156839869e-03  1.3809235376434975e-03  1.3989927389676012e-03 
 1.4172983733943283e-03  1.4358435346194661e-03  1.4546313568194009e-03  1.4736650151808024e-03 
 1.4929477264372345e-03  1.5124827494127943e-03  1.5322733855728599e-03  1.5523229795820471e-03 
 1.5726349198694617e-03  1.5932126392013573e-03  1.6140596152612787e-03  1.6351793712377971e-03 
 1.6565754764199401e-03  1.6782515468004074e-03  1.7002112456866853e-03  1.7224582843201517e-03 
 1.7449964225032849e-03  1.7678294692350814e-03  1.7909612833547860e-03  1.8143957741940367e-03 
 1.8381369022375642e-03  1.8621886797925125e-03  1.8865551716665354e-03  1.9112404958547538e-03 
 1.9362488242357090e-03  1.9615843832764194e-03  1.9872514547466641e-03  2.0132543764426140e-03 
 2.0395975429199206e-03  2.0662854062364201e-03  2.0933224767045325e-03  2.1207133236535187e-03 
 2.1484625762017047e-03  2.1765749240388182e-03  2.2050551182185522e-03  2.2339079719615094e-03 
 2.2631383614686480e-03  2.2927512267453608e-03  2.3227515724363640e-03  2.3531444686714816e-03 
 2.3839350519225160e-03  2.4151285258713221e-03  2.4467301622892396e-03  2.4787453019280386e-03 
 2.5111793554225162e-03  2.5440378042049130e-03  2.5773262014312740e-03  2.6110501729199628e-03 
 2.6452154181024275e-03  2.6798277109864196e-03  2.7148929011318172e-03  2.7504169146392141e-03 
 2.7864057551514440e-03  2.8228655048682092e-03  2.8598023255739925e-03  2.8972224596794018e-03 
 2.9351322312761666e-03  2.9735380472059154e-03  3.0124463981429503e-03  3.0518638596911851e-03 
 3.0917970934954396e-03  3.1322528483672700e-03  3.1732379614255409e-03  3.2147593592519071e-03 
 3.2568240590614230e-03  3.2994391698884773e-03  3.3426118937882258e-03  3.3863495270537651e-03 
 3.4306594614492160e-03  3.4755491854589525e-03  3.5210262855531753e-03  3.5670984474700401e-03 
 3.6137734575145699e-03  3.6610592038745461e-03  3.7089636779536524e-03  3.7574949757220259e-03 
 3.8066612990844979e-03  3.8564709572667375e-03  3.9069323682195270e-03  3.9580540600414249e-03 
 4.0098446724200210e-03  4.0623129580920781e-03  4.1154677843227459e-03  4.1693181344041770e-03 
 4.2238731091737017e-03  4.2791419285519040e-03  4.3351339331008029e-03  4.3918585856024340e-03 
 4.4493254726580807e-03  4.5075443063084314e-03  4.5665249256749436e-03  4.6262772986226620e-03 
 4.6868115234448351e-03  4.7481378305695363e-03  4.8102665842886293e-03  4.8732082845093687e-03 
 4.9369735685288957e-03  5.0015732128319791e-03  5.0670181349122597e-03  5.1333193951173398e-03 
 5.2004881985179847e-03  5.2685358968018450e-03  5.3374739901918900e-03  5.4073141293899804e-03 
 5.4780681175458706e-03  5.5497479122519561e-03  5.6223656275641524e-03  5.6959335360491784e-03 
 5.7704640708586752e-03  5.8459698278304035e-03  5.9224635676170100e-03  5.9999582178425805e-03 
 6.0784668752874478e-03  6.1580028081015771e-03  6.2385794580469174e-03  6.3202104427690902e-03 
 6.4029095580988050e-03  6.4866907803833862e-03  6.5715682688488007e-03  6.6575563679926167e-03 
 6.7446696100082514e-03  6.8329227172409454e-03  6.9223306046758692e-03  7.0129083824587990e-03 
 7.1046713584497654e-03  7.1976350408101148e-03  7.2918151406234366e-03  7.3872275745507417e-03 
 7.4838884675204609e-03  7.5818141554535720e-03  7.6810211880244048e-03  7.7815263314575866e-03 
 7.8833465713615703e-03  7.9864991155992413e-03  8.0910013971960907e-03  8.1968710772864391e-03 
 8.3041260480981854e-03  8.4127844359766866e-03  8.5228646044481077e-03  8.6343851573229217e-03 
 8.7473649418399971e-03  8.8618230518518158e-03  8.9777788310513966e-03  9.0952518762414062e-03 
 9.2142620406460863e-03  9.3348294372664654e-03  9.4569744422795376e-03  9.5807176984818686e-03 
 9.7060801187782795e-03  9.8330828897161757e-03  9.9617474750661184e-03  1.0092095619449270e-02 
 1.0224149352012274e-02  1.0357930990150243e-02  1.0493463143278415e-02  1.0630768716653256e-02 
 1.0769870915243472e-02  1.0910793247651698e-02  1.1053559530087520e-02  1.1198193890392470e-02 
 1.1344720772117680e-02  1.1493164938654911e-02  1.1643551477421629e-02  1.1795905804100797e-02 
 1.1950253666936257e-02  1.2106621151084192e-02  1.2265034683021588e-02  1.2425521035012382e-02 
 1.2588107329632036e-02  1.2752821044351314e-02  1.2919690016180031e-02  1.3088742446371607e-02 
 1.3260006905189085e-02  1.3433512336733632e-02  1.3609288063836152e-02  1.3787363793012881e-02 
 1.3967769619485888e-02  1.4150536032269232e-02  1.4335693919321673e-02  1.4523274572766819e-02 
 1.4713309694181571e-02  1.4905831399953731e-02  1.5100872226709803e-02  1.5298465136813722e-02 
 1.5498643523937596e-02  1.5701441218705283e-02  1.5906892494409880e-02  1.6115032072805978e-02 
 1.6325895129977713e-02  1.6539517302283639e-02  1.6755934692379282e-02  1.6975183875318690e-02 
 1.7197301904735604e-02  1.7422326319105664e-02  1.7650295148090474e-02  1.7881246918964717e-02 
 1.8115220663127360e-02  1.8352255922698055e-02  1.8592392757199844e-02  1.8835671750329287e-02 
 1.9082134016815244e-02  1.9331821209367370e-02  1.9584775525715487e-02  1.9841039715741110e-02 
 2.0100657088702283e-02  2.0363671520552962e-02  2.0630127461358113e-02  2.0900069942805959e-02 
 2.1173544585818310e-02  2.1450597608260749e-02  2.1731275832753472e-02  2.2015626694584473e-02 
 2.2303698249726191e-02  2.2595539182957061e-02  2.2891198816089427e-02  2.3190727116304970e-02 
 2.3494174704599368e-02  2.3801592864337234e-02  2.4113033549919258e-02  2.4428549395562583e-02 
 2.4748193724196059e-02  2.5072020556472025e-02  2.5400084619895867e-02  2.5732441358075134e-02 
 2.6069146940089612e-02  2.6410258269984083e-02  2.6755832996385117e-02  2.7105929522244020e-02 
 2.7460607014706918e-02  2.7819925415114206e-02  2.8183945449130748e-02  2.8552728637008720e-02 
 2.8926337303984601e-02  2.9304834590812335e-02  2.9688284464434285e-02  3.0076751728791686e-02 
 3.0470302035776834e-02  3.0869001896328293e-02  3.1272918691671446e-02  3.1682120684706057e-02 
 3.2096677031542897e-02  3.2516657793191267e-02  3.2942133947399477e-02  3.3373177400650295e-02 
 3.3809861000313177e-02  3.4252258546955856e-02  3.4700444806816666e-02  3.5154495524440235e-02 
 3.5614487435478528e-02  3.6080498279659354e-02  3.6552606813924519e-02  3.7030892825739972e-02 
 3.7515437146580115e-02  3.8006321665588372e-02  3.8503629343416841e-02  3.9007444226246697e-02 
 3.9517851459992287e-02  4.0034937304690918e-02  4.0558789149081072e-02  4.1089495525371257e-02 
 4.1627146124202215e-02  4.2171831809804827e-02  4.2723644635356300e-02  4.3282677858537552e-02 
 4.3849025957293855e-02  4.4422784645801877e-02  4.5004050890645554e-02  4.5592922927203752e-02 
 4.6189500276252210e-02  4.6793883760782834e-02  4.7406175523043041e-02  4.8026479041797882e-02 
 4.8654899149818458e-02  4.9291542051598726e-02  4.9936515341304326e-02  5.0589928020956375e-02 
 5.1251890518852886e-02  5.1922514708231525e-02  5.2601913926176469e-02  5.3290202992772630e-02 
 5.3987498230510356e-02  5.4693917483944511e-02  5.5409580139610268e-02  5.6134607146199764e-02 
 5.6869121035002794e-02  5.7613245940614725e-02  5.8367107621915736e-02  5.9130833483324194e-02 
 5.9904552596328507e-02  6.0688395721300165e-02  6.1482495329592990e-02  6.2286985625930782e-02 
 6.3102002571088417e-02  6.3927683904869442e-02  6.4764169169384475e-02  6.5611599732634099e-02 
 6.6470118812400503e-02  6.7339871500451565e-02  6.8221004787061557e-02  6.9113667585853147e-02 
 7.0018010758963994e-02  7.0934187142542710e-02  7.1862351572578753e-02  7.2802660911069919e-02 
 7.3755274072532420e-02  7.4720352050857863e-02  7.5698057946521652e-02  7.6688556994147034e-02 
 7.7692016590430596e-02  7.8708606322432456e-02  7.9738497996236932e-02  8.0781865665988092e-02 
 8.1838885663305452e-02  8.2909736627084382e-02  8.3994599533686473e-02  8.5093657727525127e-02 
 8.6207096952050782e-02  8.7335105381142558e-02  8.8477873650909783e-02  8.9635594891909864e-02 
 9.0808464761788096e-02  9.1996681478343986e-02  9.3200445853030708e-02  9.4419961324892693e-02 
 9.5655433994947192e-02  9.6907072661016072e-02  9.8175088853012848e-02  9.9459696868691980e-02 
 1.0076111380986578e-01  1.0207955961909453e-01  1.0341525711685809e-01  1.0476843203921274e-01 
 1.0613931307594102e-01  1.0752813190920094e-01  1.0893512325268088e-01  1.1036052489126666e-01 
 1.1180457772122779e-01  1.1326752579092951e-01  1.1474961634207757e-01  1.1625109985150266e-01 
 1.1777223007349147e-01  1.1931326408267204e-01  1.2087446231745966e-01  1.2245608862407185e-01 
 1.2405841030111889e-01  1.2568169814477778e-01  1.2732622649455796e-01  1.2899227327966428e-01 
 1.3068012006596894e-01  1.3239005210359603e-01  1.3412235837512981e-01  1.3587733164445318e-01 
 1.3765526850622564e-01  1.3945646943600851e-01  1.4128123884104590e-01  1.4312988511171049e-01 
 1.4500272067362194e-01  1.4690006204044773e-01  1.4882222986739471e-01  1.5076954900540060e-01 
 1.5274234855603450e-01  1.5474096192711592e-01  1.5676572688906151e-01  1.5881698563196892e-01 
 1.6089508482344819e-01  1.6300037566720829e-01  1.6513321396241273e-01  1.6729396016380987e-01 
 1.6948297944265056e-01  1.7170064174840285e-01  1.7394732187127476e-01  1.7622339950555441e-01 
 1.7852925931377925e-01  1.8086529099174500e-01  1.8323188933436527e-01  1.8562945430239264e-01 
 1.8805839109001318e-01  1.9051911019332507e-01  1.9301202747971363e-01  1.9553756425813351e-01 
 1.9809614735031125e-01  2.0068820916287930e-01  2.0331418776045354e-01  2.0597452693966642e-01 
 2.0866967630417135e-01  2.1140009134062576e-01  2.1416623349566932e-01  2.1696857025391006e-01 
 2.1980757521692990e-01  2.2268372818332463e-01  2.2559751522979124e-01  2.2854942879327558e-01 
 2.3153996775419572e-01  2.3456963752075385e-01  2.3763895011435138e-01  2.4074842425612195e-01 
 2.4389858545459636e-01  2.4708996609451481e-01  2.5032310552680120e-01  2.5359855015971483e-01 
 2.5691685355119509e-01  2.6027857650241198e-01  2.6368428715254599e-01  2.6713456107480288e-01 
 2.7062998137368743e-01  2.7417113878354976e-01  2.7775863176842036e-01  2.8139306662315217e-01 
 2.8507505757588592e-01  2.8880522689185634e-01  2.9258420497855586e-01  2.9641263049227545e-01 
 3.0029115044603899e-01  3.0422042031894986e-01  3.0820110416696866e-01  3.1223387473514019e-01 
 3.1631941357128873e-01  3.2045841114120160e-01  3.2465156694531994e-01  3.2889958963695370e-01 
 3.3320319714204882e-01  3.3756311678051687e-01  3.4198008538915364e-01  3.4645484944616683e-01 
 3.5098816519733256e-01  3.5558079878380250e-01  3.6023352637158351e-01  3.6494713428271197e-01 
 3.6972241912814358e-01  3.7456018794238310e-01  3.7946125831987437e-01  3.8442645855317609e-01 
 3.8945662777294565e-01  3.9455261608975312e-01  3.9971528473775320e-01  4.0494550622023501e-01 
 4.1024416445707823e-01  4.1561215493413478e-01  4.2105038485457241e-01  4.2655977329219102e-01 
 4.3214125134674947e-01  4.3779576230132367e-01  4.4352426178172305e-01  4.4932771791799403e-01 
 4.5520711150803672e-01  4.6116343618336114e-01  4.6719769857701426e-01  4.7331091849370249e-01 
 4.7950412908214196e-01  4.8577837700966259e-01  4.9213472263909736e-01  4.9857424020798630e-01 
 5.0509801801012544e-01  5.1170715857949034e-01  5.1840277887656872e-01  5.2518601047712499e-01 
 5.3205799976344548e-01  5.3901990811807532e-01  5.4607291212009690e-01  5.5321820374397324e-01 
 5.6045699056099474e-01  5.6779049594336317e-01  5.7521995927094227e-01  5.8274663614071731e-01 
 5.9037179857899347e-01  5.9809673525637164e-01  6.0592275170553600e-01  6.1385117054189353e-01 
 6.2188333168709775e-01  6.3002059259549958e-01  6.3826432848355996e-01  6.4661593256226502e-01 
 6.5507681627258263e-01  6.6364840952399518e-01  6.7233216093616499e-01  6.8112953808374854e-01 
 6.9004202774442225e-01  6.9907113615015193e-01  7.0821838924174740e-01  7.1748533292675354e-01 
 7.2687353334070848e-01  7.3638457711182748e-01  7.4602007162914463e-01  7.5578164531416758e-01 
 7.6567094789608148e-01  7.7568965069056106e-01  7.8583944688222374e-01  7.9612205181078322e-01 
 8.0653920326094641e-01  8.1709266175610196e-01  8.2778421085585541e-01  8.3861565745744848e-01 
 8.4958883210113822e-01  8.6070558927955654e-01  8.7196780775112592e-01  8.8337739085757294e-01 
 8.9493626684559835e-01  9.0664638919275564e-01  9.1850973693759275e-01  9.3052831501411426e-01 
 9.4270415459062074e-01  9.5503931341297987e-01  9.6753587615239167e-01  9.8019595475770271e-01 
 9.9302168881232844e-01  1.0060152458958513e+00  1.0191788219503441e+00  1.0325146416514908e+00 
 1.0460249587845636e+00  1.0597120566253089e+00  1.0735782483258418e+00  1.0876258773055616e+00 
 1.1018573176472009e+00  1.1162749744980494e+00  1.1308812844764304e+00  1.1456787160834951e+00 
 1.1606697701204041e+00  1.1758569801109695e+00  1.1912429127298274e+00  1.2068301682362095e+00 
 1.2226213809133963e+00  1.2386192195139147e+00  1.2548263877105648e+00  1.2712456245533457e+00 
 1.2878797049323638e+00  1.3047314400467938e+00  1.3218036778799813e+00  1.3390993036807484e+00 
 1.3566212404510238e+00  1.3743724494398253e+00  1.3923559306437212e+00  1.4105747233138377e+00 
 1.4290319064694990e+00  1.4477305994185869e+00  1.4666739622847160e+00  1.4858651965412972e+00 
 1.5053075455525968e+00  1.5250042951218725e+00  1.5449587740466812e+00  1.5651743546814552e+00 
 1.5856544535074366e+00  1.6064025317100719e+00  1.6274220957639600e+00  1.6487166980254535e+00 
 1.6702899373330216e+00  1.6921454596154484e+00  1.7142869585080196e+00  1.7367181759767476e+00 
 1.7594429029507725e+00  1.7824649799630412e+00  1.8057882977993620e+00  1.8294167981559621e+00 
 1.8533544743056396e+00  1.8776053717726375e+00  1.9021735890163476e+00  1.9270632781239585e+00 
 1.9522786455121690e+00  1.9778239526380832e+00  2.0037035167194057e+00  2.0299217114640622e+00 
 2.0564829678093663e+00  2.0833917746708583e+00  2.1106526797009475e+00  2.1382702900574597e+00 
 2.1662492731822822e+00  2.1945943575901548e+00  2.2233103336678077e+00  2.2524020544835439e+00 
 2.2818744366074224e+00  2.3117324609421694e+00  2.3419811735649625e+00  2.3726256865802307e+00 
 2.4036711789836085e+00  2.4351228975372043e+00  2.4669861576563132e+00  2.4992663443077312e+00 
 2.5319689129198326e+00  2.5650993903045483e+00  2.5986633755914106e+00  2.6326665411738177e+00 
 2.6671146336676892e+00  2.7020134748826368e+00  2.7373689628058928e+00  2.7731870725990655e+00 
 2.8094738576079616e+00  2.8462354503856129e+00  2.8834780637286959e+00  2.9212079917275044e+00 
 2.9594316108296721e+00  2.9981553809178054e+00  3.0373858464012127e+00  3.0771296373219337e+00 
 3.1173934704752293e+00  3.1581841505447312e+00  3.1995085712524607e+00  3.2413737165238712e+00 
 3.2837866616681577e+00  3.3267545745739953e+00  3.3702847169209402e+00  3.4143844454066419e+00 
 3.4590612129901830e+00  3.5043225701516203e+00  3.5501761661680402e+00  3.5966297504063038e+00 
 3.6436911736327131e+00  3.6913683893398046e+00  3.7396694550905081e+00  3.7886025338798959e+00 
 3.8381758955147518e+00  3.8883979180111785e+00  3.9392770890105124e+00  3.9908220072137492e+00 
 4.0430413838347485e+00  4.0959440440724455e+00  4.1495389286023334e+00  4.2038350950874586e+00 
 4.2588417197091966e+00  4.3145680987180119e+00  4.3710236500046005e+00  4.4282179146914986e+00 
 4.4861605587455680e+00  4.5448613746115605e+00  4.6043302828670720e+00  4.6645773338991399e+00 
 4.7256127096027809e+00  4.7874467251017627e+00  4.8500898304918705e+00  4.9135526126070168e+00 
 4.9778457968084222e+00  5.0429802487972442e+00  5.1089669764508914e+00  5.1758171316833970e+00 
 5.2435420123301011e+00  5.3121530640570258e+00  5.3816618822952256e+00  5.4520802142004001e+00 
 5.5234199606382504e+00  5.5956931781957238e+00  5.6689120812186022e+00  5.7430890438757682e+00 
 5.8182366022504555e+00  5.8943674564588884e+00  5.9714944727966284e+00  6.0496306859130051e+00 
 6.1287893010140078e+00  6.2089836960939921e+00  6.2902274241965994e+00  6.3725342157052447e+00 
 6.4559179806635933e+00  6.5403928111263836e+00  6.6259729835410202e+00  6.7126729611603331e+00 
 6.8005073964869052e+00  6.8894911337493356e+00  6.9796392114110253e+00  7.0709668647116617e+00 
 7.1634895282420183e+00  7.2572228385524475e+00  7.3521826367954821e+00  7.4483849714030432e+00 
 7.5458461007986459e+00  7.6445824961451283e+00  7.7446108441283075e+00  7.8459480497770633e+00 
 7.9486112393203490e+00  8.0526177630815425e+00  8.1579851984107083e+00  8.2647313526551969e+00 
 8.3728742661691467e+00  8.4824322153623299e+00  8.5934237157889317e+00  8.7058675252766662e+00 
 8.8197826470969805e+00  8.9351883331765904e+00  9.0521040873511183e+00  9.1705496686612928e+00 
 9.2905450946922681e+00  9.4121106449566430e+00  9.5352668643217449e+00  9.6600345664817784e+00 
 9.7864348374753636e+00  9.9144890392491423e+00  1.0044218813267999e+01  1.0175646084172509e+01 
 1.0308793063484266e+01  1.0443682253359677e+01  1.0580336450392883e+01  1.0718778749468424e+01 
 1.0859032547664379e+01  1.1001121548206417e+01  1.1145069764473833e+01  1.1290901524057793e+01 
 1.1438641472872757e+01  1.1588314579321706e+01  1.1739946138515872e+01  1.1893561776549653e+01 
 1.2049187454831502e+01  1.2206849474471449e+01  1.2366574480726062e+01  1.2528389467501562e+01 
 1.2692321781915847e+01  1.2858399128920231e+01  1.3026649575981638e+01  1.3197101557826070e+01 
 1.3369783881244153e+01  1.3544725729959548e+01  1.3721956669561084e+01  1.3901506652499339e+01 
 1.4083406023148795e+01  1.4267685522936032e+01  1.4454376295535120e+01  1.4643509892130965e+01 
 1.4835118276751547e+01  1.5029233831669922e+01  1.5225889362876881e+01  1.5425118105625250e+01 
 1.5626953730046747e+01  1.5831430346842282e+01  1.6038582513046769e+01  1.6248445237869337e+01 
 1.6461053988609979e+01  1.6676444696653597e+01  1.6894653763542500e+01  1.7115718067128348e+01 
 1.7339674967804644e+01  1.7566562314820573e+01  1.7796418452677820e+01  1.8029282227610771e+01 
 1.8265192994151615e+01  1.8504190621781405e+01  1.8746315501668036e+01  1.8991608553492494e+01 
 1.9240111232364359e+01  1.9491865535827817e+01  1.9746914010959362e+01  2.0005299761558316e+01 
 2.0267066455431529e+01  2.0532258331773285e+01  2.0800920208641873e+01  2.1073097490533925e+01 
 2.1348836176057883e+01  2.1628182865707934e+01  2.1911184769739421e+01  2.2197889716147728e+01 
 2.2488346158751188e+01  2.2782603185379919e+01  2.3080710526171782e+01  2.3382718561976887e+01 
 2.3688678332872104e+01  2.3998641546786914e+01  2.4312660588242224e+01  2.4630788527203432e+01 
 2.4953079128049392e+01  2.5279586858658742e+01  2.5610366899615059e+01  2.5945475153532570e+01 
 2.6284968254503767e+01  2.6628903577670737e+01  2.6977339248921702e+01  2.7330334154714464e+01 
 2.7687947952028161e+01  2.8050241078445747e+01  2.8417274762367882e+01  2.8789111033360715e+01 
 2.9165812732639051e+01  2.9547443523686663e+01  2.9934067903015553e+01  3.0325751211066027e+01 
 3.0722559643249397e+01  3.1124560261135134e+01  3.1531821003784472e+01  3.1944410699232233e+01 
 3.2362399076118955e+01  3.2785856775475175e+01  3.3214855362659968e+01  3.3649467339455612e+01 
 3.4089766156320614e+01  3.4535826224803039e+01  3.4987722930116014e+01  3.5445532643878323e+01 
 3.5909332737021259e+01  3.6379201592864426e+01  3.6855218620362812e+01  3.7337464267527018e+01 
 3.7826020035019219e+01  3.8320968489926926e+01  3.8822393279717048e+01  3.9330379146372493e+01 
 3.9845011940713768e+01  4.0366378636908017e+01  4.0894567347167794e+01  4.1429667336642261e+01 
 4.1971769038503240e+01  4.2520964069228597e+01  4.3077345244085663e+01  4.3641006592817298e+01 
 4.4212043375532865e+01  4.4790552098807829e+01  4.5376630531993349e+01  4.5970377723739553e+01 
 4.6571894018735001e+01  4.7181281074665236e+01  4.7798641879393095e+01  4.8424080768363972e+01 
 4.9057703442238697e+01  4.9699616984757242e+01  5.0349929880836100e+01  5.1008752034902514e+01 
 5.1676194789468617e+01  5.2352370943948465e+01  5.3037394773721559e+01  5.3731382049445536e+01 
 5.4434450056621756e+01  5.5146717615416890e+01  5.5868305100743477e+01  5.6599334462604041e+01 
 5.7339929246700684e+01  5.8090214615314601e+01  5.8850317368458839e+01  5.9620365965307798e+01 
 6.0400490545907118e+01  6.1190822953167711e+01  6.1991496755147459e+01  6.2802647267624607e+01 
 6.3624411576966345e+01  6.4456928563296856e+01  6.5300338923968283e+01  6.6154785197338995e+01 
 6.7020411786862823e+01  6.7897364985493695e+01  6.8785793000409427e+01  6.9685845978059206e+01 
 7.0597676029538178e+01  7.1521437256295471e+01  7.2457285776176988e+01  7.3405379749810038e+01 