  <PP_INFO>

############################################################
#    Opium Parameter File                                  #
############################################################
#-----------------------------------------------------------
#Command line   : /usr/local/bin/opium re re.log all ke rpt upf 
 
#Opium version  : 3.7 
#Compile Host   : vagvlan567.045.wlan.design.upenn.edu 
#Compile OS     : Darwin 11.4.2 i386 
#Compile Date   : Fri Aug  2 18:20:33 EDT 2013 
#-----------------------------------------------------------
#Execution Host : vagvlan567.0798.wlan.wireless-pennnet.upenn.edu 
#Execution Date : Wed Oct 22 12:43:32 2014
 
#-----------------------------------------------------------
############################################################
[Atom]
Re
14              # norb: number of orbitals
100 2.00 -643.0 # nlm occ eigen(- means auto-generate)
200 2.00 -77.4
210 6.00 -68.4
300 2.00 -10.0
310 6.00  -6.0
320 10.0  -6.4
400 2.00  -6.4
410 6.00  -6.0
420 10.0  -6.0
430 14.0  -1.9
500 2.00  -2.4
510 6.00  -2.0
520 0.00  -1.0
600 0.00  -1.0

[Pseudo]
4  1.75 1.77 1.80 1.83
opt

 [Optinfo]
 7.07  10
 7.07  10
 7.07  10
 7.07  10

[XC]
 gga

[Configs]
7              
#
500 2.00  -2.4 
510 6.00  -2.0
520 0.00 -1.0
600 0.00 -1.0 
#
500 2.00  -2.4 
510 6.00  -2.0
520 1.00 -1.0
600 0.00 -1.0 
#
500 2.00  -2.4 
510 6.00  -2.0
520 2.00 -1.0
600 0.00 -1.0 
#
500 2.00  -2.4 
510 6.00  -2.0
520 2.00 -1.0
600 1.00 -1.0 
#
500 2.00  -2.4 
510 6.00  -2.0
520 3.00 -1.0
600 2.00 -1.0 
#
500 2.00  -2.4 
510 6.00  -2.0
520 4.00 -1.0
600 2.00 -1.0 
#
500 2.00  -2.4 
510 6.00  -2.0
520 5.00 -1.0
600 2.00 -1.0 

[Relativity]
srl              # nrl / srl / frl

[KBdesign]
0                 # local orbital
1                 # number of aug. operators
au 0.01 1.61 2.08
############################################################
  </PP_INFO>



<PP_HEADER>
   0         Version Number
   Re        Element
   NC        Norm - Conserving pseudopotential
    F      Nonlinear Core Correction
SLA  PW   PBE  PBE     PBE  Exchange-Correlation functional
 15          Z valence
 0          Total energy
 0.000000   0.000000     Suggested cutoff for wfc and rho
 2           Max angular momentum component
 1187           Number of points in mesh
 3  3     Number of Wavefuncitons, Number of Projectors
 Wavefunctions         nl  l   occ
                       S  0  2.000000
                       P  1  6.000000
                       D  2  0.000000
</PP_HEADER>
<PP_MESH>
  <PP_R>
 2.3712622029933749e-05  2.4022898543948717e-05  2.4337234984994436e-05  2.4655684476677591e-05 
 2.4978300837720221e-05  2.5305138591055220e-05  2.5636252973040766e-05  2.5971699942795512e-05 
 2.6311536191655755e-05  2.6655819152756383e-05  2.7004607010737259e-05  2.7357958711576529e-05 
 2.7715933972552639e-05  2.8078593292336715e-05  2.8445997961216990e-05  2.8818210071456911e-05 
 2.9195292527789041e-05  2.9577309058045986e-05  2.9964324223930594e-05  3.0356403431927038e-05 
 3.0753612944354657e-05  3.1156019890566446e-05  3.1563692278294080e-05  3.1976699005141414e-05 
 3.2395109870228235e-05  3.2818995585986607e-05  3.3248427790111404e-05  3.3683479057667195e-05 
 3.4124222913353677e-05  3.4570733843931466e-05  3.5023087310810579e-05  3.5481359762803540e-05 
 3.5945628649045528e-05  3.6415972432083238e-05  3.6892470601135513e-05  3.7375203685527023e-05 
 3.7864253268297992e-05  3.8359701999991892e-05  3.8861633612623583e-05  3.9370132933830255e-05 
 3.9885285901207516e-05  4.0407179576832877e-05  4.0935902161979724e-05  4.1471543012023343e-05 
 4.2014192651542290e-05  4.2563942789617187e-05  4.3120886335329831e-05  4.3685117413465018e-05 
 4.4256731380417896e-05  4.4835824840309363e-05  4.5422495661312483e-05  4.6016842992192261e-05 
 4.6618967279062253e-05  4.7228970282360062e-05  4.7846955094045107e-05  4.8473026155021421e-05 
 4.9107289272788438e-05  4.9749851639322649e-05  5.0400821849193408e-05  5.1060309917915471e-05 
 5.1728427300542135e-05  5.2405286910501261e-05  5.3091003138677900e-05  5.3785691872746710e-05 
 5.4489470516757161e-05  5.5202458010975159e-05  5.5924774851984193e-05  5.6656543113049591e-05 
 5.7397886464749200e-05  5.8148930195873818e-05  5.8909801234601630e-05  5.9680628169949100e-05 
 6.0461541273502970e-05  6.1252672521436383e-05  6.2054155616813190e-05  6.2866126012184144e-05 
 6.3688720932478677e-05  6.4522079398196056e-05  6.5366342248900523e-05  6.6221652167023268e-05 
 6.7088153701976174e-05  6.7965993294581017e-05  6.8855319301818280e-05  6.9756282021899866e-05 
 7.0669033719669862e-05  7.1593728652337622e-05  7.2530523095547616e-05  7.3479575369790487e-05 
 7.4441045867159288e-05  7.5415097078456529e-05  7.6401893620655273e-05  7.7401602264719785e-05 
 7.8414391963790335e-05  7.9440433881736608e-05  8.0479901422084884e-05  8.1532970257323383e-05 
 8.2599818358591707e-05  8.3680626025758208e-05  8.4775575917891028e-05  8.5884853084128057e-05 
 8.7008644994950561e-05  8.8147141573866205e-05  8.9300535229506551e-05  9.0469020888144612e-05 
 9.1652796026637777e-05  9.2852060705802050e-05  9.4067017604222407e-05  9.5297872052506479e-05 
 9.6544832067985587e-05  9.7808108389870209e-05  9.9087914514865483e-05  1.0038446673325260e-04 
 1.0169798416544247e-04  1.0302868879900724e-04  1.0437680552619730e-04  1.0574256218194817e-04 
 1.0712618958238533e-04  1.0852792156383261e-04  1.0994799502233111e-04  1.1138664995367527e-04 
 1.1284412949397258e-04  1.1432067996073434e-04  1.1581655089450371e-04  1.1733199510102897e-04 
 1.1886726869398771e-04  1.2042263113827133e-04  1.2199834529383482e-04  1.2359467746012083e-04 
 1.2521189742106489e-04  1.2685027849068957e-04  1.2851009755929517e-04  1.3019163514025467e-04 
 1.3189517541742157e-04  1.3362100629315727e-04  1.3536941943698743e-04  1.3714071033489478e-04 
 1.3893517833925685e-04  1.4075312671943746e-04  1.4259486271303969e-04  1.4446069757783001e-04 
 1.4635094664434140e-04  1.4826592936916522e-04  1.5020596938893958e-04  1.5217139457504540e-04 
 1.5416253708901704e-04  1.5617973343867847e-04  1.5822332453501391e-04  1.6029365574978259e-04 
 1.6239107697388753e-04  1.6451594267650739e-04  1.6666861196500344e-04  1.6884944864560899e-04 
 1.7105882128491369e-04  1.7329710327215205e-04  1.7556467288230729e-04  1.7786191334004056e-04 
 1.8018921288445684e-04  1.8254696483471834e-04  1.8493556765651639e-04  1.8735542502941289e-04 
 1.8980694591506358e-04  1.9229054462633263e-04  1.9480664089731363e-04  1.9735565995426495e-04 
 1.9993803258747426e-04  2.0255419522406253e-04  2.0520459000174227e-04  2.0788966484353906e-04 
 2.1060987353349191e-04  2.1336567579334381e-04  2.1615753736023576e-04  2.1898593006541741e-04 
 2.2185133191398782e-04  2.2475422716567933e-04  2.2769510641669862e-04  2.3067446668263876e-04 
 2.3369281148247578e-04  2.3675065092366480e-04  2.3984850178834964e-04  2.4298688762069910e-04 
 2.4616633881538880e-04  2.4938739270723799e-04  2.5265059366202095e-04  2.5595649316846548e-04 
 2.5930564993145673e-04  2.6269862996645889e-04  2.6613600669517359e-04  2.6961836104244931e-04 
 2.7314628153445888e-04  2.7672036439816230e-04  2.8034121366207033e-04  2.8400944125832653e-04 
 2.8772566712612519e-04  2.9149051931648309e-04  2.9530463409838115e-04  2.9916865606629541e-04 
 3.0308323824913537e-04  3.0704904222060672e-04  3.1106673821101974e-04  3.1513700522055939e-04 
 3.1926053113403799e-04  3.2343801283714910e-04  3.2767015633424341e-04  3.3195767686764491e-04 
 3.3630129903852837e-04  3.4070175692937915e-04  3.4515979422805398e-04  3.4967616435346708e-04 
 3.5425163058291892e-04  3.5888696618109270e-04  3.6358295453073656e-04  3.6834038926505876e-04 
 3.7316007440185250e-04  3.7804282447937717e-04  3.8298946469401756e-04  3.8800083103974310e-04 
 3.9307777044939382e-04  3.9822114093781359e-04  4.0343181174685690e-04  4.0871066349229199e-04 
 4.1405858831262819e-04  4.1947649001988866e-04  4.2496528425235724e-04  4.3052589862932304e-04 
 4.3615927290785033e-04  4.4186635914160037e-04  4.4764812184172988e-04  4.5350553813989678e-04 
 4.5943959795339618e-04  4.6545130415246030e-04  4.7154167272974546e-04  4.7771173297203671e-04 
 4.8396252763420049e-04  4.9029511311541186e-04  4.9671055963768963e-04  5.0320995142676540e-04 
 5.0979438689532073e-04  5.1646497882862125e-04  5.2322285457258029e-04  5.3006915622428317e-04 
 5.3700504082500387e-04  5.4403168055574820e-04  5.5115026293535408e-04  5.5836199102118715e-04 
 5.6566808361245828e-04  5.7306977545620484e-04  5.8056831745596489e-04  5.8816497688318368e-04 
 5.9586103759138535e-04  6.0365780023314685e-04  6.1155658247991193e-04  6.1955871924467974e-04 
 6.2766556290760954e-04  6.3587848354457546e-04  6.4419886915871301e-04  6.5262812591499386e-04 
 6.6116767837787226e-04  6.6981896975203961e-04  6.7858346212632892e-04  6.8746263672081237e-04 
 6.9645799413712878e-04  7.0557105461209176e-04  7.1480335827461166e-04  7.2415646540598122e-04 
 7.3363195670356673e-04  7.4323143354794994e-04  7.5295651827356571e-04  7.6280885444287899e-04 
 7.7279010712415230e-04  7.8290196317284445e-04  7.9314613151669521e-04  8.0352434344453682e-04 
 8.1403835289888655e-04  8.2468993677236604e-04  8.3548089520800168e-04  8.4641305190345296e-04 
 8.5748825441922083e-04  8.6870837449089093e-04  8.8007530834545954e-04  8.9159097702180303e-04 
 9.0325732669533591e-04  9.1507632900692047e-04  9.2704998139607692e-04  9.3918030743855797e-04 
 9.5146935718833623e-04  9.6391920752406839e-04  9.7653196250009362e-04  9.8930975370202122e-04 
 1.0022547406069776e-03  1.0153691109485599e-03  1.0286550810865694e-03  1.0421148963815807e-03 
 1.0557508315744151e-03  1.0695651911705743e-03  1.0835603098297102e-03  1.0977385527601859e-03 
 1.1121023161188017e-03  1.1266540274157528e-03  1.1413961459248825e-03  1.1563311630993073e-03 
 1.1714616029924756e-03  1.1867900226847413e-03  1.2023190127155158e-03  1.2180511975210750e-03 
 1.2339892358780953e-03  1.2501358213529924e-03  1.2664936827571423e-03  1.2830655846080557e-03 
 1.2998543275965879e-03  1.3168627490602631e-03  1.3340937234627911e-03  1.3515501628798556e-03 
 1.3692350174912668e-03  1.3871512760795458e-03  1.4053019665350368e-03  1.4236901563676266e-03 
 1.4423189532251628e-03  1.4611915054186526e-03  1.4803110024543353e-03  1.4996806755727178e-03 
 1.5193037982946555e-03  1.5391836869745952e-03  1.5593237013610396e-03  1.5797272451643554e-03 
 1.6003977666320074e-03  1.6213387591313220e-03  1.6425537617398727e-03  1.6640463598435943e-03 
 1.6858201857427224e-03  1.7078789192656544e-03  1.7302262883908597e-03  1.7528660698769086e-03 
 1.7758020899007580e-03  1.7990382247043812e-03  1.8225784012498643e-03  1.8464265978830714e-03 
 1.8705868450059951e-03  1.8950632257579041e-03  1.9198598767053981e-03  1.9449809885415073e-03 
 1.9704308067939238e-03  1.9962136325425038e-03  2.0223338231461648e-03  2.0487957929792877e-03 
 2.0756040141777566e-03  2.1027630173947598e-03  2.1302773925664844e-03  2.1581517896878161e-03 
 2.1863909195982160e-03  2.2149995547778496e-03  2.2439825301541539e-03  2.2733447439189495e-03 
 2.3030911583562480e-03  2.3332268006808887e-03  2.3637567638881501e-03  2.3946862076144799e-03 
 2.4260203590094793e-03  2.4577645136193149e-03  2.4899240362816692e-03  2.5225043620324154e-03 
 2.5555109970241494e-03  2.5889495194567434e-03  2.6228255805200765e-03  2.6571449053490958e-03 
 2.6919132939913835e-03  2.7271366223873676e-03  2.7628208433633839e-03  2.7989719876377094e-03 
 2.8355961648397700e-03  2.8726995645426820e-03  2.9102884573093037e-03  2.9483691957519795e-03 
 2.9869482156061411e-03  3.0260320368179685e-03  3.0656272646462646e-03  3.1057405907787749e-03 
 3.1463787944630904e-03  3.1875487436523555e-03  3.2292573961659730e-03  3.2715118008654872e-03 
 3.3143190988458621e-03  3.3576865246423421e-03  3.4016214074531082e-03  3.4461311723779191e-03 
 3.4912233416729871e-03  3.5369055360222478e-03  3.5831854758252733e-03  3.6300709825020411e-03 
 3.6775699798147722e-03  3.7256904952070644e-03  3.7744406611605504e-03  3.8238287165693091e-03 
 3.8738630081322479e-03  3.9245519917637285e-03  3.9759042340226317e-03  4.0279284135601211e-03 
 4.0806333225863614e-03  4.1340278683564208e-03  4.1881210746756194e-03  4.2429220834245699e-03 
 4.2984401561041892e-03  4.3546846754008899e-03  4.4116651467723030e-03  4.4693912000537120e-03 
 4.5278725910855126e-03  4.5871192033619806e-03  4.6471410497016053e-03  4.7079482739392749e-03 
 4.7695511526406123e-03  4.8319600968387433e-03  4.8951856537937681e-03  4.9592385087753000e-03 
 5.0241294868682822e-03  5.0898695548024587e-03  5.1564698228057796e-03  5.2239415464820516e-03 
 5.2922961287131653e-03  5.3615451215862078e-03  5.4317002283457991e-03  5.5027733053719489e-03 
 5.5747763641838385e-03  5.6477215734697835e-03  5.7216212611437669e-03  5.7964879164288967e-03 
 5.8723341919681045e-03  5.9491729059624786e-03  6.0270170443375683e-03  6.1058797629380390e-03 
 6.1857743897510255e-03  6.2667144271586215e-03  6.3487135542197939e-03  6.4317856289821812e-03 
 6.5159446908241393e-03  6.6012049628274257e-03  6.6875808541809363e-03  6.7750869626158911e-03 
 6.8637380768728972e-03  6.9535491792012509e-03  7.0445354478910092e-03  7.1367122598381362e-03 
 7.2300951931432407e-03  7.3247000297443129e-03  7.4205427580839060e-03  7.5176395758112264e-03 
 7.6160068925195676e-03  7.7156613325195852e-03  7.8166197376488104e-03  7.9188991701180118e-03 
 8.0225169153947083e-03  8.1274904851244712e-03  8.2338376200904347e-03  8.3415762932115244e-03 
 8.4507247125799254e-03  8.5613013245382941e-03  8.6733248167972440e-03  8.7868141215935742e-03 
 8.9017884188899235e-03  9.0182671396161831e-03  9.1362699689533852e-03  9.2558168496605468e-03 
 9.3769279854450417e-03  9.4996238443770704e-03  9.6239251623488238e-03  9.7498529465788967e-03 
 9.8774284791625245e-03  1.0006673320668368e-02  1.0137609313782252e-02  1.0270258586998659e-02 
 1.0404643558360476e-02  1.0540786939247714e-02  1.0678711738215779e-02  1.0818441264883967e-02 
 1.0959999133874869e-02  1.1103409268805244e-02  1.1248695906329235e-02  1.1395883600234380e-02 
 1.1544997225591269e-02  1.1696061982957496e-02  1.1849103402636599e-02  1.2004147348992763e-02 
 1.2161220024821937e-02  1.2320347975780195e-02  1.2481558094869971e-02  1.2644877626985096e-02 
 1.2810334173515214e-02  1.2977955697010490e-02  1.3147770525907349e-02  1.3319807359316054e-02 
 1.3494095271870912e-02  1.3670663718643970e-02  1.3849542540122994e-02  1.4030761967254536e-02 
 1.4214352626553114e-02  1.4400345545277115e-02  1.4588772156672484e-02  1.4779664305285017e-02 
 1.4973054252342178e-02  1.5168974681205301e-02  1.5367458702893175e-02  1.5568539861677888e-02 
 1.5772252140753843e-02  1.5978629967981071e-02  1.6187708221703574e-02  1.6399522236643854e-02 
 1.6614107809874580e-02  1.6831501206868358e-02  1.7051739167626697e-02  1.7274858912889154e-02 
 1.7500898150423737e-02  1.7729895081399560e-02  1.7961888406843006e-02  1.8196917334178237e-02 
 1.8435021583853368e-02  1.8676241396053308e-02  1.8920617537500441e-02  1.9168191308344310e-02 
 1.9419004549141441e-02  1.9673099647926500e-02  1.9930519547375927e-02  2.0191307752065422e-02 
 2.0455508335822284e-02  2.0723165949173984e-02  2.0994325826894238e-02  2.1269033795647763e-02 
 2.1547336281735111e-02  2.1829280318938816e-02  2.2114913556472240e-02  2.2404284267032323e-02 
 2.2697441354957895e-02  2.2994434364494564e-02  2.3295313488167813e-02  2.3600129575265659e-02 
 2.3908934140432318e-02  2.4221779372374286e-02  2.4538718142680362e-02  2.4859804014757094e-02 
 2.5185091252881042e-02  2.5514634831369679e-02  2.5848490443872114e-02  2.6186714512781473e-02 
 2.6529364198770406e-02  2.6876497410451380e-02  2.7228172814163388e-02  2.7584449843886680e-02 
 2.7945388711287263e-02  2.8311050415892762e-02  2.8681496755401589e-02  2.9056790336126809e-02 
 2.9436994583576813e-02  2.9822173753174332e-02  3.0212392941115798e-02  3.0607718095372730e-02 
 3.1008216026837107e-02  3.1413954420612601e-02  3.1825001847453412e-02  3.2241427775353021e-02 
 3.2663302581284373e-02  3.3090697563093789e-02  3.3523684951550427e-02  3.3962337922553494e-02 
 3.4406730609499114e-02  3.4856938115809095e-02  3.5313036527623562e-02  3.5775102926659613e-02 
 3.6243215403238466e-02  3.6717453069482826e-02  3.7197896072687024e-02  3.7684625608862099e-02 
 3.8177723936458123e-02  3.8677274390266088e-02  3.9183361395501659e-02  3.9696070482073291e-02 
 4.0215488299036851e-02  4.0741702629239707e-02  4.1274802404156090e-02  4.1814877718916801e-02 
 4.2362019847535466e-02  4.2916321258334056e-02  4.3477875629570319e-02  4.4046777865269518e-02 
 4.4623124111263589e-02  4.5207011771439765e-02  4.5798539524202382e-02  4.6397807339149541e-02 
 4.7004916493968284e-02  4.7619969591550765e-02  4.8243070577334346e-02  4.8874324756868676e-02 
 4.9513838813612536e-02  5.0161720826963664e-02  5.0818080290524259e-02  5.1483028130605887e-02 
 5.2156676724976189e-02  5.2839139921850936e-02  5.3530533059134758e-02  5.4230972983913404e-02 
 5.4940578072201290e-02  5.5659468248947283e-02  5.6387765008302310e-02  5.7125591434152030e-02 
 5.7873072220918559e-02  5.8630333694633927e-02  5.9397503834289558e-02  6.0174712293464987e-02 
 6.0962090422239650e-02  6.1759771289391335e-02  6.2567889704885166e-02  6.3386582242656808e-02 
 6.4215987263693611e-02  6.5056244939418223e-02  6.5907497275377758e-02  6.6769888135243052e-02 
 6.7643563265121998e-02  6.8528670318190973e-02  6.9425358879648583e-02  7.0333780491995915e-02 
 7.1254088680647629e-02  7.2186438979877962e-02  7.3130988959106621e-02  7.4087898249528189e-02 
 7.5057328571090431e-02  7.6039443759824757e-02  7.7034409795535719e-02  7.8042394829851480e-02 
 7.9063569214641929e-02  8.0098105530808608e-02  8.1146178617451228e-02  8.2207965601415953e-02 
 8.3283645927230227e-02  8.4373401387429325e-02  8.5477416153279764e-02  8.6595876805904637e-02 
 8.7728972367816266e-02  8.8876894334861498e-02  9.0039836708584925e-02  9.1217996029015619e-02 
 9.2411571407882892e-02  9.3620764562266548e-02  9.4845779848687889e-02  9.6086824297645618e-02 
 9.7344107648605599e-02  9.8617842385446575e-02  9.9908243772370689e-02  1.0121552989028364e-01 
 1.0253992167365079e-01  1.0388164294783571e-01  1.0524092046692719e-01  1.0661798395206115e-01 
 1.0801306613024413e-01  1.0942640277368464e-01  1.1085823273963934e-01  1.1230879801078036e-01 
 1.1377834373609103e-01  1.1526711827229655e-01  1.1677537322583696e-01  1.1830336349538922e-01 
 1.1985134731494590e-01  1.2141958629745637e-01  1.2300834547904148e-01  1.2461789336378430e-01 
 1.2624850196910825e-01  1.2790044687174862e-01  1.2957400725432575e-01  1.3126946595252753e-01 
 1.3298710950290935e-01  1.3472722819131933e-01  1.3649011610195744e-01  1.3827607116707652e-01 
 1.4008539521733321e-01  1.4191839403279846e-01  1.4377537739463472e-01  1.4565665913745002e-01 
 1.4756255720233649e-01  1.4949339369060327e-01  1.5144949491821283e-01  1.5343119147092771e-01 
 1.5543881826018227e-01  1.5747271457968223e-01  1.5953322416274643e-01  1.6162069524039865e-01 
 1.6373548060021939e-01  1.6587793764596784e-01  1.6804842845798401e-01  1.7024731985438110e-01 
 1.7247498345303866e-01  1.7473179573440695e-01  1.7701813810513289e-01  1.7933439696251893e-01 
 1.8168096375982482e-01  1.8405823507242441e-01  1.8646661266482764e-01  1.8890650355857980e-01 
 1.9137832010104947e-01  1.9388248003511477e-01  1.9641940656976506e-01  1.9898952845162285e-01 
 2.0159328003740329e-01  2.0423110136732156e-01  2.0690343823946067e-01  2.0961074228511245e-01 
 2.1235347104510430e-01  2.1513208804712453e-01  2.1794706288405991e-01  2.2079887129335779e-01 
 2.2368799523742694e-01  2.2661492298509026e-01  2.2958014919410349e-01  2.3258417499475351e-01 
 2.3562750807455052e-01  2.3871066276402833e-01  2.4183416012366821e-01  2.4499852803195721e-01 
 2.4820430127460383e-01  2.5145202163491615e-01  2.5474223798536483e-01  2.5807550638034421e-01 
 2.6145239015014660e-01  2.6487345999616629e-01  2.6833929408734986e-01  2.7185047815790764e-01 
 2.7540760560630451e-01  2.7901127759554561e-01  2.8266210315477419e-01  2.8636069928219904e-01 
 2.9010769104936879e-01  2.9390371170681023e-01  2.9774940279104944e-01  3.0164541423303265e-01 
 3.0559240446796709e-01  3.0959104054659559e-01  3.1364199824793304e-01  3.1774596219347273e-01 
 3.2190362596288918e-01  3.2611569221125519e-01  3.3038287278779177e-01  3.3470588885617270e-01 
 3.3908547101640268e-01  3.4352235942829074e-01  3.4801730393653862e-01  3.5257106419746653e-01 
 3.5718440980739707e-01  3.6185812043271859e-01  3.6659298594165052e-01  3.7138980653773335e-01 
 3.7624939289506476e-01  3.8117256629530533e-01  3.8616015876647813e-01  3.9121301322358032e-01 
 3.9633198361104210e-01  4.0151793504704258e-01  4.0677174396971755e-01  4.1209429828527955e-01 
 4.1748649751807598e-01  4.2294925296261127e-01  4.2848348783755741e-01  4.3409013744178016e-01 
 4.3977014931240715e-01  4.4552448338496342e-01  4.5135411215560312e-01  4.5726002084546358e-01 
 4.6324320756716997e-01  4.6930468349351895e-01  4.7544547302836881e-01  4.8166661397976668e-01 
 4.8796915773534116e-01  4.9435416943998578e-01  5.0082272817587659e-01  5.0737592714483559e-01 
 5.1401487385308597e-01  5.2074069029842251e-01  5.2755451315983282e-01  5.3445749398959785e-01 
 5.4145079940790775e-01  5.4853561130002282e-01  5.5571312701601538e-01  5.6298455957312465e-01 
 5.7035113786075953e-01  5.7781410684818368e-01  5.8537472779491873e-01  5.9303427846389956e-01 
 6.0079405333741975e-01  6.0865536383590191e-01  6.1661953853953222e-01  6.2468792341278856e-01 
 6.3286188203191951e-01  6.4114279581538625e-01  6.4953206425732779e-01  6.5803110516407792e-01 
 6.6664135489377840e-01  6.7536426859912690e-01  6.8420132047330096e-01  6.9315400399910021e-01 
 7.0222383220134899e-01  7.1141233790260050e-01  7.2072107398218765e-01  7.3015161363866377e-01 
 7.3970555065567622e-01  7.4938449967132026e-01  7.5919009645101632e-01  7.6912399816395849e-01 
 7.7918788366318137e-01  7.8938345376928443e-01  7.9971243155788352e-01  8.1017656265080873e-01 
 8.2077761551112061e-01  8.3151738174198397e-01  8.4239767638945351e-01  8.5342033824922092e-01 
 8.6458723017737538e-01  8.7590023940523087e-01  8.8736127785827346e-01  8.9897228247927952e-01 
 9.1073521555566572e-01  9.2265206505111885e-01  9.3472484494156660e-01  9.4695559555554520e-01 
 9.5934638391901839e-01  9.7189930410471126e-01  9.8461647758601389e-01  9.9750005359550931e-01 
 1.0105522094882089e+00  1.0237751511095241e+00  1.0371711131680605e+00  1.0507423596132903e+00 
 1.0644911840181630e+00  1.0784199099667269e+00  1.0925308914468186e+00  1.1068265132478941e+00 
 1.1213091913640627e+00  1.1359813734023962e+00  1.1508455389965804e+00  1.1659042002259785e+00 
 1.1811599020401797e+00  1.1966152226891007e+00  1.2122727741587158e+00  1.2281352026124903e+00 
 1.2442051888385892e+00  1.2604854487029284e+00  1.2769787336081755e+00  1.2936878309587356e+00 
 1.3106155646318296e+00  1.3277647954547385e+00  1.3451384216882878e+00  1.3627393795166618e+00 
 1.3805706435436258e+00  1.3986352272952403e+00  1.4169361837291550e+00  1.4354766057505650e+00 
 1.4542596267349202e+00  1.4732884210574719e+00  1.4925662046297514e+00  1.5120962354430654e+00 
 1.5318818141191046e+00  1.5519262844677566e+00  1.5722330340522213e+00  1.5928054947615047e+00 
 1.6136471433904342e+00  1.6347615022272328e+00  1.6561521396487984e+00  1.6778226707237669e+00 
 1.6997767578234679e+00  1.7220181112408743e+00  1.7445504898176500e+00  1.7673777015794039e+00 
 1.7905036043792544e+00  1.8139321065498173e+00  1.8376671675637206e+00  1.8617127987027680e+00 
 1.8860730637358525e+00  1.9107520796057449e+00  1.9357540171248653e+00  1.9610831016801618e+00 
 1.9867436139472132e+00  2.0127398906136600e+00  2.0390763251121364e+00  2.0657573683627559e+00 
 2.0927875295253302e+00  2.1201713767614319e+00  2.1479135380064189e+00  2.1760187017515711e+00 
 2.2044916178364544e+00  2.2333370982516554e+00  2.2625600179520187e+00  2.2921653156805282e+00 
 2.3221579948029629e+00  2.3525431241534798e+00  2.3833258388912588e+00  2.4145113413683568e+00 
 2.4461049020089165e+00  2.4781118601998817e+00  2.5105376251933715e+00  2.5433876770208368e+00 
 2.5766675674192272e+00  2.6103829207692297e+00  2.6445394350458060e+00  2.6791428827811647e+00 
 2.7141991120403328e+00  2.7497140474094919e+00  2.7856936909972490e+00  2.8221441234490046e+00 
 2.8590715049745996e+00  2.8964820763894017e+00  2.9343821601690219e+00  2.9727781615178230e+00 
 3.0116765694514207e+00  3.0510839578933373e+00  3.0910069867860130e+00  3.1314524032163513e+00 
 3.1724270425559982e+00  3.2139378296165146e+00  3.2559917798197193e+00  3.2985960003832893e+00 
 3.3417576915219009e+00  3.3854841476640871e+00  3.4297827586850076e+00  3.4746610111553613e+00 
 3.5201264896066284e+00  3.5661868778128816e+00  3.6128499600893549e+00  3.6601236226080158e+00 
 3.7080158547303457e+00  3.7565347503575608e+00  3.8056885092985029e+00  3.8554854386554234e+00 
 3.9059339542279048e+00  3.9570425819351516e+00  4.0088199592568969e+00  4.0612748366931282e+00 
 4.1144160792429876e+00  4.1682526679029479e+00  4.2227937011846279e+00  4.2780483966524665e+00 
 4.3340260924815075e+00  4.3907362490355792e+00  4.4481884504661160e+00  4.5063924063318996e+00 
 4.5653579532400030e+00  4.6250950565081981e+00  4.6856138118491160e+00  4.7469244470764513e+00 
 4.8090373238334818e+00  4.8719629393442139e+00  4.9357119281874384e+00  5.0002950640939980e+00 
 5.0657232617675856e+00  5.1320075787293131e+00  5.1991592171865211e+00  5.2671895259259358e+00 
 5.3361100022316519e+00  5.4059322938282035e+00  5.4766682008490539e+00  5.5483296778308473e+00 
 5.6209288357337561e+00  5.6944779439882582e+00  5.7689894325687030e+00  5.8444758940940051e+00 
 5.9209500859558268e+00  5.9984249324746086e+00  6.0769135270838106e+00  6.1564291345427318e+00 
 6.2369851931782874e+00  6.3185953171561176e+00  6.4012732987814278e+00  6.4850331108298702e+00 
 6.5698889089090491e+00  6.6558550338508047e+00  6.7429460141348594e+00  6.8311765683441674e+00 
 6.9205616076523864e+00  7.0111162383439050e+00  7.1028557643668382e+00  7.1957956899194340e+00 
 7.2899517220703149e+00  7.3853397734130173e+00  7.4819759647552493e+00  7.5798766278433503e+00 
 7.6790583081223973e+00  7.7795377675324184e+00  7.8813319873412064e+00  7.9844581710141860e+00 
 8.0889337471218639e+00  8.1947763722852365e+00  8.3020039341598864e+00  8.4106345544589818e+00 
 8.5206865920159043e+00  8.6321786458869347e+00  8.7451295584945417e+00  8.8595584188117886e+00 
 8.9754845655884203e+00  9.0929275906191585e+00  9.2119073420547579e+00  9.3324439277563958e+00 
 9.4545577186939447e+00  9.5782693523887144e+00  9.7035997364012445e+00  9.8305700518647328e+00 
 9.9592017570646938e+00  1.0089516591065463e+01  1.0221536577384164e+01  1.0355284027712674e+01 
 1.0490781545688444e+01  1.0628052030714509e+01  1.0767118681829558e+01  1.0908005001628620e+01 
 1.1050734800235064e+01  1.1195332199324566e+01  1.1341821636201727e+01  1.1490227867930038e+01 
 1.1640575975515885e+01  1.1792891368147290e+01  1.1947199787488136e+01  1.2103527312028556e+01 
 1.2261900361492275e+01  1.2422345701301598e+01  1.2584890447100824e+01  1.2749562069338866e+01 
 1.2916388397911840e+01  1.3085397626866293e+01  1.3256618319164199e+01  1.3430079411510079e+01 
 1.3605810219241389e+01  1.3783840441282898e+01  1.3964200165165858e+01  1.4146919872112877e+01 
 1.4332030442189319e+01  1.4519563159522113e+01  1.4709549717586830e+01  1.4902022224563968e+01 
 1.5097013208765315e+01  1.5294555624131295e+01  1.5494682855800274e+01  1.5697428725750727e+01 
 1.5902827498517233e+01  1.6110913886981283e+01  1.6321723058237740e+01  1.6535290639538321e+01 
 1.6751652724312567e+01  1.6970845878267781e+01  1.7192907145568679e+01  1.7417874055097958e+01 
 1.7645784626798775e+01  1.7876677378100194e+01  1.8110591330426736e+01  1.8347566015793074e+01 
 1.8587641483485072e+01  1.8830858306828155e+01  1.9077257590044361e+01  1.9326880975199000e+01 
 1.9579770649238299e+01  1.9835969351119061e+01  2.0095520379031697e+01  2.0358467597717699e+01 
 2.0624855445882808e+01  2.0894728943707417e+01  2.1168133700454995e+01  2.1445115922180150e+01 
 2.1725722419537608e+01  2.2010000615693286e+01  2.2297998554338950e+01  2.2589764907811688e+01 
 2.2885348985319673e+01  2.3184800741275520e+01  2.3488170783738713e+01  2.3795510382968477e+01 
 2.4106871480088582e+01  2.4422306695865505e+01  2.4741869339601479e+01  2.5065613418143890e+01 
 2.5393593645012555e+01  2.5725865449646481e+01  2.6062484986771398e+01  2.6403509145890318e+01 
 2.6748995560897800e+01  2.7099002619820268e+01  2.7453589474683735e+01  2.7812816051510616e+01 
 2.8176743060447407e+01  2.8545432006024779e+01  2.8918945197552063e+01  2.9297345759647616e+01 
 2.9680697642907070e+01  3.0069065634711109e+01  3.0462515370174696e+01  3.0861113343239577e+01 
 3.1264926917911900e+01  3.1674024339646902e+01  3.2088474746882540e+01  3.2508348182724141e+01 
 3.2933715606781576e+01  3.3364648907161985e+01  3.3801220912618795e+01  3.4243505404860016e+01 
 3.4691577131017517e+01  3.5145511816279466e+01  3.5605386176688086e+01  3.6071277932104827e+01 
 3.6543265819345230e+01  3.7021429605485601e+01  3.7505850101343896e+01  3.7996609175136861e+01 
 3.8493789766316027e+01  3.8997475899584650e+01  3.9507752699098063e+01  4.0024706402849866e+01 
 4.0548424377246526e+01  4.1078995131872119e+01  4.1616508334446834e+01  4.2161054825981537e+01 
 4.2712726636129062e+01  4.3271616998738679e+01  4.3837820367611549e+01  4.4411432432464956e+01 
 4.4992550135102810e+01  4.5581271685800267e+01  4.6177696579900307e+01  4.6781925614629891e+01 
 4.7394060906133689e+01  4.8014205906733245e+01  4.8642465422409323e+01  4.9278945630515736e+01 
 4.9923754097722188e+01  5.0576999798194699e+01  5.1238793132011075e+01  5.1909245943820231e+01 
 5.2588471541742919e+01  5.3276584716521619e+01  5.3973701760921031e+01  5.4679940489380485e+01 
 5.5395420257926368e+01  5.6120261984342115e+01  5.6854588168605076e+01  5.7598522913587729e+01 