  <PP_INFO>

############################################################
#    Opium Parameter File                                  #
############################################################
#-----------------------------------------------------------
#Command line   : ../../../opium C C.log all ke rpt upf 
 
#Opium version  : 3.8 
#Compile Host   : vagvlan567.185.wlan.design.upenn.edu 
#Compile OS     : Darwin 14.5.0 i386 
#Compile Date   : Tue Jul  5 15:40:53 EDT 2016 
#-----------------------------------------------------------
#Execution Host : vagvlan567.185.wlan.design.upenn.edu 
#Execution Date : Tue Jul  5 15:43:57 2016
 
#-----------------------------------------------------------
############################################################
[Atom]
C  
3
100   2.00   -
200   2.00   -
210   2.00   -

[Pseudo]
2  0.84 1.29
opt

[Optinfo]
7.07  10
7.07  10
conmax

[Configs]
3
#
200  2.00  -
210  2.00  -
#
200  2.00  -
210  1.50  -
#
200  2.00  -
210  1.00  -

[XC]
hf

[HFsmooth]
1
1e-6
0.0 0.0
############################################################
  </PP_INFO>



<PP_HEADER>
   0         Version Number
   C        Element
   NC        Norm - Conserving pseudopotential
    F      Nonlinear Core Correction
HF  NOC   NOGX  NOGC     HF  Exchange-Correlation functional
 4          Z valence
 0          Total energy
 0.000000   0.000000     Suggested cutoff for wfc and rho
 1           Max angular momentum component
 1122           Number of points in mesh
 2  1     Number of Wavefuncitons, Number of Projectors
 Wavefunctions         nl  l   occ
                       S  0  2.000000
                       P  1  2.000000
</PP_HEADER>
<PP_MESH>
  <PP_R>
 5.5032120814910476e-05  5.5752208816302571e-05  5.6481719073680262e-05  5.7220774876013368e-05 
 5.7969501125491499e-05  5.8728024358632913e-05  5.9496472767669259e-05  6.0274976222210700e-05 
 6.1063666291193979e-05  6.1862676265117891e-05  6.2672141178569770e-05  6.3492197833046570e-05 
 6.4322984820074745e-05  6.5164642544632438e-05  6.6017313248878376e-05  6.6881141036190917e-05 
 6.7756271895522149e-05  6.8642853726070237e-05  6.9541036362274632e-05  7.0450971599138646e-05 
 7.1372813217883042e-05  7.2306717011935470e-05  7.3252840813259901e-05  7.4211344519030679e-05 
 7.5182390118655275e-05  7.6166141721151323e-05  7.7162765582881003e-05  7.8172430135649032e-05 
 7.9195306015167948e-05  8.0231566089895905e-05  8.1281385490251953e-05  8.2344941638213404e-05 
 8.3422414277300712e-05  8.4513985502954249e-05  8.5619839793309215e-05  8.6740164040372783e-05 
 8.7875147581609146e-05  8.9024982231938139e-05  9.0189862316152403e-05  9.1369984701758703e-05 
 9.2565548832248981e-05  9.3776756760806978e-05  9.5003813184455223e-05  9.6246925478649892e-05 
 9.7506303732327454e-05  9.8782160783410231e-05  1.0007471225477644e-04  1.0138417659070127e-04 
 1.0271077509377406e-04  1.0405473196229937e-04  1.0541627432818653e-04  1.0679563229533612e-04 
 1.0819303897852752e-04  1.0960873054281619e-04  1.1104294624344600e-04  1.1249592846628389e-04 
 1.1396792276878379e-04  1.1545917792148629e-04  1.1696994595006154e-04  1.1850048217790223e-04 
 1.2005104526927351e-04  1.2162189727302836e-04  1.2321330366689426e-04  1.2482553340233945e-04 
 1.2645885895002648e-04  1.2811355634586037e-04  1.2978990523763941e-04  1.3148818893231622e-04 
 1.3320869444387711e-04  1.3495171254184854e-04  1.3671753780043769e-04  1.3850646864831614e-04 
 1.4031880741905488e-04  1.4215486040221982e-04  1.4401493789513502e-04  1.4589935425532400e-04 
 1.4780842795363673e-04  1.4974248162807194e-04  1.5170184213830407e-04  1.5368684062092245e-04 
 1.5569781254539533e-04  1.5773509777076427e-04  1.5979904060308122e-04  1.6188998985359728e-04 
 1.6400829889771245e-04  1.6615432573469706e-04  1.6832843304819410e-04  1.7053098826751419e-04 
 1.7276236362973179e-04  1.7502293624259392e-04  1.7731308814825260e-04  1.7963320638783058e-04 
 1.8198368306683252e-04  1.8436491542141156e-04  1.8677730588550318e-04  1.8922126215883744e-04 
 1.9169719727584169e-04  1.9420552967544321e-04  1.9674668327178789e-04  1.9932108752588156e-04 
 2.0192917751817062e-04  2.0457139402207125e-04  2.0724818357846126e-04  2.0995999857114693e-04 
 2.1270729730331613e-04  2.1549054407499351e-04  2.1831020926150785e-04  2.2116676939298681e-04 
 2.2406070723489155e-04  2.2699251186960513e-04  2.2996267877908880e-04  2.3297170992861958e-04 
 2.3602011385162350e-04  2.3910840573561899e-04  2.4223710750928516e-04  2.4540674793066796e-04 
 2.4861786267654285e-04  2.5187099443294464e-04  2.5516669298688291e-04  2.5850551531925745e-04 
 2.6188802569898900e-04  2.6531479577838275e-04  2.6878640468973775e-04  2.7230343914322292e-04 
 2.7586649352603183e-04  2.7947617000283561e-04  2.8313307861755011e-04  2.8683783739643520e-04 
 2.9059107245254200e-04  2.9439341809152814e-04  2.9824551691885661e-04  3.0214801994839750e-04 
 3.0610158671245155e-04  3.1010688537321109e-04  3.1416459283568302e-04  3.1827539486208636e-04 
 3.2243998618774756e-04  3.2665907063851297e-04  3.3093336124969639e-04  3.3526358038658480e-04 
 3.3965045986651785e-04  3.4409474108256947e-04  3.4859717512884277e-04  3.5315852292740771e-04 
 3.5777955535689889e-04  3.6246105338279532e-04  3.6720380818940600e-04  3.7200862131358110e-04 
 3.7687630478017479e-04  3.8180768123927833e-04  3.8680358410525089e-04  3.9186485769756685e-04 
 3.9699235738351003e-04  4.0218694972273108e-04  4.0744951261369920e-04  4.1278093544206866e-04 
 4.1818211923098599e-04  4.2365397679336729e-04  4.2919743288616423e-04  4.3481342436665015e-04 
 4.4050290035075218e-04  4.4626682237345299e-04  4.5210616455129303e-04  4.5802191374699877e-04 
 4.6401506973626415e-04  4.7008664537671576e-04  4.7623766677908769e-04  4.8246917348063694e-04 
 4.8878221862082782e-04  4.9517786911931489e-04  5.0165720585625400e-04  5.0822132385497560e-04 
 5.1487133246704453e-04  5.2160835555974431e-04  5.2843353170601182e-04  5.3534801437686043e-04 
 5.4235297213631867e-04  5.4944958883892069e-04  5.5663906382977962e-04  5.6392261214728058e-04 
 5.7130146472842477e-04  5.7877686861686076e-04  5.8635008717363812e-04  5.9402240029071760e-04 
 6.0179510460727696e-04  6.0966951372884578e-04  6.1764695844930691e-04  6.2572878697580623e-04 
 6.3391636515659875e-04  6.4221107671188517e-04  6.5061432346766041e-04  6.5912752559262728e-04 
 6.6775212183820584e-04  6.7648956978168988e-04  6.8534134607257761e-04  6.9430894668213018e-04 
 7.0339388715619450e-04  7.1259770287133387e-04  7.2192194929430987e-04  7.3136820224496083e-04 
 7.4093805816251811e-04  7.5063313437540903e-04  7.6045506937458902e-04  7.7040552309044991e-04 
 7.8048617717335275e-04  7.9069873527783140e-04  8.0104492335051052e-04  8.1152648992180042e-04 
 8.2214520640139851e-04  8.3290286737766443e-04  8.4380129092090578e-04  8.5484231889064151e-04 
 8.6602781724687706e-04  8.7735967636545754e-04  8.8883981135754440e-04  9.0047016239327580e-04 
 9.1225269502965764e-04  9.2418940054274888e-04  9.3628229626419219e-04  9.4853342592214650e-04 
 9.6094485998668314e-04  9.7351869601969927e-04  9.8625705902941128e-04  9.9916210182948739e-04 
 1.0122360054028742e-03  1.0254809792703938e-03  1.0388992618641541e-03  1.0524931209058507e-03 
 1.0662648537900154e-03  1.0802167879722839e-03  1.0943512813627401e-03  1.1086707227244089e-03 
 1.1231775320769616e-03  1.1378741611057059e-03  1.1527630935759283e-03  1.1678468457526523e-03 
 1.1831279668258973e-03  1.1986090393414949e-03  1.2142926796375464e-03  1.2301815382865908e-03 
 1.2462783005435568e-03  1.2625856867995785e-03  1.2791064530417444e-03  1.2958433913188713e-03 
 1.3127993302133642e-03  1.3299771353192530e-03  1.3473797097264843e-03  1.3650099945115535e-03 
 1.3828709692345509e-03  1.4009656524427156e-03  1.4192971021805766e-03  1.4378684165067710e-03 
 1.4566827340176207e-03  1.4757432343775652e-03  1.4950531388565316e-03  1.5146157108743355e-03 
 1.5344342565522093e-03  1.5545121252715417e-03  1.5748527102399351e-03  1.5954594490646616e-03 
 1.6163358243336267e-03  1.6374853642039399e-03  1.6589116429981772e-03  1.6806182818084527e-03 
 1.7026089491083863e-03  1.7248873613730936e-03  1.7474572837072710e-03  1.7703225304815133e-03 
 1.7934869659769455e-03  1.8169545050383002e-03  1.8407291137355342e-03  1.8648148100341019e-03 
 1.8892156644740065e-03  1.9139358008577218e-03  1.9389793969471351e-03  1.9643506851695909e-03 
 1.9900539533331853e-03  2.0160935453514156e-03  2.0424738619773059e-03  2.0691993615471558e-03 
 2.0962745607340017e-03  2.1237040353109505e-03  2.1514924209244854e-03  2.1796444138779164e-03 
 2.2081647719250576e-03  2.2370583150743001e-03  2.2663299264032051e-03  2.2959845528837571e-03 
 2.3260272062184117e-03  2.3564629636870869e-03  2.3872969690052347e-03  2.4185344331931423e-03 
 2.4501806354566059e-03  2.4822409240791280e-03  2.5147207173257928e-03  2.5476255043589673e-03 
 2.5809608461659713e-03  2.6147323764989135e-03  2.6489458028268000e-03  2.6836069073001138e-03 
 2.7187215477280035e-03  2.7542956585682788e-03  2.7903352519303439e-03  2.8268464185912511e-03 
 2.8638353290250684e-03  2.9013082344456968e-03  2.9392714678633403e-03  2.9777314451548032e-03 
 3.0166946661477866e-03  3.0561677157193742e-03  3.0961572649088956e-03  3.1366700720453374e-03 
 3.1777129838895337e-03  3.2192929367912712e-03  3.2614169578615553e-03  3.3040921661602056e-03 
 3.3473257738989956e-03  3.3911250876605347e-03  3.4354975096330936e-03  3.4804505388616003e-03 
 3.5259917725149800e-03  3.5721289071701163e-03  3.6188697401125774e-03  3.6662221706543776e-03 
 3.7141942014689809e-03  3.7627939399437747e-03  3.8120295995502317e-03  3.8619095012320127e-03 
 3.9124420748112235e-03  3.9636358604130647e-03  4.0154995099091510e-03  4.0680417883796919e-03 
 4.1212715755948003e-03  4.1751978675152093e-03  4.2298297778126043e-03  4.2851765394098526e-03 
 4.3412475060413958e-03  4.3980521538340535e-03  4.4556000829084940e-03  4.5139010190017063e-03 
 4.5729648151106505e-03  4.6328014531574471e-03  4.6934210456763426e-03  4.7548338375227543e-03 
 4.8170502076046720e-03  4.8800806706367191e-03  4.9439358789171734e-03  5.0086266241282052e-03 
 5.0741638391597309e-03  5.1405585999570753e-03  5.2078221273928393e-03  5.2759657891632526e-03 
 5.3450011017093443e-03  5.4149397321632447e-03  5.4857935003199609e-03  5.5575743806349559e-03 
 5.6302945042478363e-03  5.7039661610325818e-03  5.7786018016745310e-03  5.8542140397745968e-03 
 5.9308156539809795e-03  6.0084195901488014e-03  6.0870389635279748e-03  6.1666870609797279e-03 
 6.2473773432221045e-03  6.3291234471048426e-03  6.4119391879140656e-03  6.4958385617070839e-03 
 6.5808357476777532e-03  6.6669451105528070e-03  6.7541812030195185e-03  6.8425587681851434e-03 
 6.9320927420685437e-03  7.0227982561244127e-03  7.1146906398004981e-03  7.2077854231283644e-03 
 7.3020983393479637e-03  7.3976453275666140e-03  7.4944425354527347e-03  7.5925063219648451e-03 
 7.6918532601162673e-03  7.7925001397760032e-03  7.8944639705062717e-03  7.9977619844371368e-03 
 8.1024116391788196e-03  8.2084306207720493e-03  8.3158368466770480e-03  8.4246484688016276e-03 
 8.5348838765689165e-03  8.6465617000251946e-03  8.7597008129884271e-03  8.8743203362380008e-03 
 8.9904396407461309e-03  9.1080783509516639e-03  9.2272563480766141e-03  9.3479937734861525e-03 
 9.4703110320925425e-03  9.5942287958036086e-03  9.7197680070163599e-03  9.8469498821562845e-03 
 9.9757959152629947e-03  1.0106327881622737e-02  1.0238567841448510e-02  1.0372538143608270e-02 
 1.0508261429401944e-02  1.0645760636387868e-02  1.0785059002259281e-02  1.0926180068771553e-02 
 1.1069147685720822e-02  1.1213986014974626e-02  1.1360719534555322e-02  1.1509373042776971e-02 
 1.1659971662436269e-02  1.1812540845058379e-02  1.1967106375198296e-02  1.2123694374798493e-02 
 1.2282331307603591e-02  1.2443043983632815e-02  1.2605859563710931e-02  1.2770805564058470e-02 
 1.2937909860942086e-02  1.3107200695385679e-02  1.3278706677943201e-02  1.3452456793533895e-02 
 1.3628480406340848e-02  1.3806807264773577e-02  1.3987467506495585e-02  1.4170491663517729e-02 
 1.4355910667358142e-02  1.4543755854269792e-02  1.4734058970536356e-02  1.4926852177837431e-02 
 1.5122168058683912e-02  1.5320039621924532e-02  1.5520500308324430e-02  1.5723583996216733e-02 
 1.5929325007228063e-02  1.6137758112078928e-02  1.6348918536460161e-02  1.6562841966986069e-02 
 1.6779564557225558e-02  1.6999122933812210e-02  1.7221554202634232e-02  1.7446895955105460e-02 
 1.7675186274518407e-02  1.7906463742480411e-02  1.8140767445433997e-02  1.8378136981262647e-02 
 1.8618612465982867e-02  1.8862234540523944e-02  1.9109044377596304e-02  1.9359083688649855e-02 
 1.9612394730923289e-02  1.9869020314585633e-02  2.0129003809971357e-02  2.0392389154909926e-02 
 2.0659220862151526e-02  2.0929544026889787e-02  2.1203404334382919e-02  2.1480848067674720e-02 
 2.1761922115416454e-02  2.2046673979791178e-02  2.2335151784541693e-02  2.2627404283103645e-02 
 2.2923480866844828e-02  2.3223431573412615e-02  2.3527307095190322e-02  2.3835158787864383e-02 
 2.4147038679103575e-02  2.4462999477351824e-02  2.4783094580736048e-02  2.5107378086090582e-02 
 2.5435904798099682e-02  2.5768730238559547e-02  2.6105910655761799e-02  2.6447503033999467e-02 
 2.6793565103197498e-02  2.7144155348669239e-02  2.7499333021000633e-02  2.7859158146063642e-02 
 2.8223691535160828e-02  2.8592994795302598e-02  2.8967130339618855e-02  2.9346161397907061e-02 
 2.9730152027318223e-02  3.0119167123182636e-02  3.0513272429977409e-02  3.0912534552437382e-02 
 3.1317020966811542e-02  3.1726800032266626e-02  3.2141941002440048e-02  3.2562514037143782e-02 
 3.2988590214221736e-02  3.3420241541561917e-02  3.3857540969266041e-02  3.4300562401978187e-02 
 3.4749380711374928e-02  3.5204071748818767e-02  3.5664712358177260e-02  3.6131380388809788e-02 
 3.6604154708724169e-02  3.7083115217905749e-02  3.7568342861820571e-02  3.8059919645095322e-02 
 3.8557928645376383e-02  3.9062454027370123e-02  3.9573581057066896e-02  4.0091396116151264e-02 
 4.0615986716600709e-02  4.1147441515475190e-02  4.1685850329900687e-02  4.2231304152248295e-02 
 4.2783895165512210e-02  4.3343716758888907e-02  4.3910863543560108e-02  4.4485431368682271e-02 
 4.5067517337585371e-02  4.5657219824183616e-02  4.6254638489600687e-02  4.6859874299013032e-02 
 4.7473029538712942e-02  4.8094207833395297e-02  4.8723514163670378e-02  4.9361054883805773e-02 
 5.0006937739700628e-02  5.0661271887094843e-02  5.1324167910016753e-02  5.1995737839471895e-02 
 5.2676095172376779e-02  5.3365354890740006e-02  5.4063633481094470e-02  5.4771048954183936e-02 
 5.5487720864907032e-02  5.6213770332522450e-02  5.6949320061118275e-02  5.7694494360349381e-02 
 5.8449419166445811e-02  5.9214222063496628e-02  5.9989032305011764e-02  6.0773980835766135e-02 
 6.1569200313929713e-02  6.2374825133487001e-02  6.3190991446949979e-02  6.4017837188368135e-02 
 6.4855502096639830e-02  6.5704127739128190e-02  6.6563857535586635e-02  6.7434836782396992e-02 
 6.8317212677125053e-02  6.9211134343397096e-02  7.0116752856102374e-02  7.1034221266924977e-02 
 7.1963694630210032e-02  7.2905330029168186e-02  7.3859286602422955e-02  7.4825725570905791e-02 
 7.5804810265102565e-02  7.6796706152656921e-02  7.7801580866334666e-02  7.8819604232354123e-02 
 7.9850948299087107e-02  8.0895787366135632e-02  8.1954298013788895e-02  8.3026659132865610e-02 
 8.4113051954947227e-02  8.5213660083006446e-02  8.6328669522436438e-02  8.7458268712486298e-02 
 8.8602648558107733e-02  8.9762002462218340e-02  9.0936526358387337e-02  9.2126418743948668e-02 
 9.3331880713547463e-02  9.4553115993125769e-02  9.5790330974352467e-02  9.7043734749504076e-02 
 9.8313539146801812e-02  9.9599958766211125e-02  1.0090321101570947e-01  1.0222351614802884e-01 
 1.0356109729787916e-01  1.0491618051965822e-01  1.0628899482565574e-01  1.0767977222475685e-01 
 1.0908874776165227e-01  1.1051615955656113e-01  1.1196224884547423e-01  1.1342726002092320e-01 
 1.1491144067328356e-01  1.1641504163261814e-01  1.1793831701106761e-01  1.1948152424579651e-01 
 1.2104492414250061e-01  1.2262878091948336e-01  1.2423336225230990e-01  1.2585893931904449e-01 
 1.2750578684608041e-01  1.2917418315456947e-01  1.3086441020745881e-01  1.3257675365714305e-01 
 1.3431150289374086e-01  1.3606895109400205e-01  1.3784939527085541e-01  1.3965313632360446e-01 
 1.4148047908878014e-01  1.4333173239165911e-01  1.4520720909845558e-01  1.4710722616919705e-01 
 1.4903210471129044e-01  1.5098217003379086e-01  1.5295775170237913e-01  1.5495918359505936e-01 
 1.5698680395858503e-01  1.5904095546562347e-01  1.6112198527266844e-01  1.6323024507871040e-01 
 1.6536609118467446e-01  1.6752988455363604e-01  1.6972199087182446e-01  1.7194278061042501e-01 
 1.7419262908818947e-01  1.7647191653486485e-01  1.7878102815545491e-01  1.8112035419531927e-01 
 1.8349029000612668e-01  1.8589123611266969e-01  1.8832359828055498e-01  1.9078778758477799e-01 
 1.9328422047919624e-01  1.9581331886691064e-01  1.9837551017156815e-01  2.0097122740959752e-01 
 2.0360090926339022e-01  2.0626500015543814e-01  2.0896395032344306e-01  2.1169821589640703e-01 
 2.1446825897171973e-01  2.1727454769325386e-01  2.2011755633048299e-01  2.2299776535863267e-01 
 2.2591566153988418e-01  2.2887173800563709e-01  2.3186649433984982e-01  2.3490043666347069e-01 
 2.3797407771997339e-01  2.4108793696201217e-01  2.4424254063921011e-01  2.4743842188709689e-01 
 2.5067612081721008e-01  2.5395618460837477e-01  2.5727916759917852e-01  2.6064563138165581e-01 
 2.6405614489619850e-01  2.6751128452770773e-01  2.7101163420300495e-01  2.7455778548951632e-01 
 2.7815033769525005e-01  2.8178989797007858e-01  2.8547708140835115e-01  2.8921251115284485e-01 
 2.9299681850007714e-01  2.9683064300699669e-01  3.0071463259907005e-01  3.0464944367978258e-01 
 3.0863574124157217e-01  3.1267419897821447e-01  3.1676549939867898e-01  3.2091033394247437e-01 
 3.2510940309650366e-01  3.2936341651344808e-01  3.3367309313170018e-01  3.3803916129686562e-01 
 3.4246235888485627e-01  3.4694343342659190e-01  3.5148314223433624e-01  3.5608225252968145e-01 
 3.6074154157321442e-01  3.6546179679587287e-01  3.7024381593202432e-01  3.7508840715428443e-01 
 3.7999638921010032e-01  3.8496859156012087e-01  3.9000585451837755e-01  3.9510902939429954e-01 
 4.0027897863658685e-01  4.0551657597896651e-01  4.1082270658785519e-01  4.1619826721195502e-01 
 4.2164416633380575e-01  4.2716132432332082e-01  4.3275067359333191e-01  4.3841315875716869e-01 
 4.4414973678830189e-01  4.4996137718207097e-01  4.5584906211953541e-01  4.6181378663346279e-01 
 4.6785655877649290e-01  4.7397839979149997e-01  4.8018034428418632e-01  4.8646344039793238e-01 
 4.9282874999093562e-01  4.9927734881566760e-01  5.0581032670067771e-01  5.1242878773477774e-01 
 5.1913385045363503e-01  5.2592664802880784e-01  5.3280832845925385e-01  5.3978005476534463e-01 
 5.4684300518541973e-01  5.5399837337491031e-01  5.6124736860807189e-01  5.6859121598235052e-01 
 5.7603115662543203e-01  5.8356844790499318e-01  5.9120436364119966e-01  5.9894019432198509e-01 
 6.0677724732114668e-01  6.1471684711929375e-01  6.2276033552768972e-01  6.3090907191501977e-01 
 6.3916443343712814e-01  6.4752781526976044e-01  6.5600063084435212e-01  6.6458431208690161e-01 
 6.7328030965996855e-01  6.8209009320784031e-01  6.9101515160490479e-01  7.0005699320727344e-01 
 7.0921714610769859e-01  7.1849715839382011e-01  7.2789859840980287e-01  7.3742305502138616e-01 
 7.4707213788440618e-01  7.5684747771683247e-01  7.6675072657436338e-01  7.7678355812962618e-01 
 7.8694766795503301e-01  7.9724477380933545e-01  8.0767661592793161e-01  8.1824495731696800e-01 
 8.2895158405129321e-01  8.3979830557630797e-01  8.5078695501376644e-01  8.6191938947157720e-01 
 8.7319749035766059e-01  8.8462316369790894e-01  8.9619834045831193e-01  9.0792497687129015e-01 
 9.1980505476630858e-01  9.3184058190480779e-01  9.4403359231951944e-01  9.5638614665822430e-01 
 9.6890033253200614e-01  9.8157826486806232e-01  9.9442208626713235e-01  1.0074339673656023e+00 
 1.0206161072023476e+00  1.0339707335903749e+00  1.0475001034933296e+00  1.0612065034069260e+00 
 1.0750922497453723e+00  1.0891596892328494e+00  1.1034111993001119e+00  1.1178491884862816e+00 
 1.1324760968458969e+00  1.1472943963612796e+00  1.1623065913603192e+00  1.1775152189397009e+00 
 1.1929228493936834e+00  1.2085320866484852e+00  1.2243455687023539e+00  1.2403659680713941e+00 
 1.2565959922412295e+00  1.2730383841245738e+00  1.2896959225247893e+00  1.3065714226055127e+00 
 1.3236677363664229e+00  1.3409877531252363e+00  1.3585344000060082e+00  1.3763106424338247e+00 
 1.3943194846359648e+00  1.4125639701496240e+00  1.4310471823362798e+00  1.4497722449027783e+00 
 1.4687423224292637e+00  1.4879606209039882e+00  1.5074303882651361e+00  1.5271549149497312e+00 
 1.5471375344497289e+00  1.5673816238753855e+00  1.5878906045259973e+00  1.6086679424681067e+00 
 1.6297171491212790e+00  1.6510417818515373e+00  1.6726454445725671e+00  1.6945317883547881e+00 
 1.7167045120423905e+00  1.7391673628784510e+00  1.7619241371382246e+00  1.7849786807707240e+00 
 1.8083348900486991e+00  1.8319967122271013e+00  1.8559681462101993e+00  1.8802532432273906e+00 
 1.9048561075178716e+00  1.9297808970242649e+00  1.9550318240953211e+00  1.9806131561978138e+00 
 2.0065292166377549e+00  2.0327843852910417e+00  2.0593830993436657e+00  2.0863298540416104e+00 
 2.1136292034505546e+00  2.1412857612255238e+00  2.1693042013906076e+00  2.1976892591288801e+00 
 2.2264457315826585e+00  2.2555784786642308e+00  2.2850924238771966e+00  2.3149925551485340e+00 
 2.3452839256715978e+00  2.3759716547601033e+00  2.4070609287133049e+00  2.4385570016924976e+00 
 2.4704651966089775e+00  2.5027909060236304e+00  2.5355395930582856e+00  2.5687167923189977e+00 
 2.6023281108314058e+00  2.6363792289883379e+00  2.6708759015098060e+00  2.7058239584155719e+00 
 2.7412293060104331e+00  2.7770979278824011e+00  2.8134358859139432e+00  2.8502493213064537e+00 
 2.8875444556181393e+00  2.9253275918154547e+00  2.9636051153383494e+00  3.0023834951794037e+00 
 3.0416692849771061e+00  3.0814691241234367e+00  3.1217897388859388e+00  3.1626379435444743e+00 
 3.2040206415428529e+00  3.2459448266555317e+00  3.2884175841695780e+00  3.3314460920821003e+00 
 3.3750376223133487e+00  3.4191995419356846e+00  3.4639393144186332e+00  3.5092645008902288e+00 
 3.5551827614148639e+00  3.6017018562878564e+00  3.6488296473469681e+00  3.6965740993010421e+00 
 3.7449432810761025e+00  3.7939453671789907e+00  3.8435886390788898e+00  3.8938814866069063e+00 
 3.9448324093739733e+00  3.9964500182073084e+00  4.0487430366056580e+00  4.1017203022135922e+00 
 4.1553907683150930e+00  4.2097635053466727e+00  4.2648477024302984e+00  4.3206526689263844e+00 
 4.3771878360070913e+00  4.4344627582502136e+00  4.4924871152539305e+00  4.5512707132726797e+00 
 4.6108234868744447e+00  4.6711555006196894e+00  4.7322769507623397e+00  4.7941981669729472e+00 
 4.8569296140844278e+00  4.9204818938606509e+00  4.9848657467881594e+00  5.0500920538913379e+00 
 5.1161718385713320e+00  5.1831162684690275e+00  5.2509366573524145e+00  5.3196444670286294e+00 
 5.3892513092810406e+00  5.4597689478316598e+00  5.5312093003292420e+00  5.6035844403633925e+00 
 5.6769065995050383e+00  5.7511881693735853e+00  5.8264417037311524e+00  5.9026799206041352e+00 
 5.9799157044326483e+00  6.0581621082479877e+00  6.1374323558786346e+00  6.2177398441851066e+00 
 6.2990981453240673e+00  6.3815210090420535e+00  6.4650223649992036e+00  6.5496163251234174e+00 
 6.6353171859952971e+00  6.7221394312643064e+00  6.8100977340965434e+00  6.8992069596545322e+00 
 6.9894821676094843e+00  7.0809386146864055e+00  7.1735917572425256e+00  7.2674572538794635e+00 
 7.3625509680895727e+00  7.4588889709368580e+00  7.5564875437731098e+00  7.6553631809894300e+00 
 7.7555325928038421e+00  7.8570127080853567e+00  7.9598206772149878e+00  8.0639738749842120e+00 
 8.1694899035313444e+00  8.2763865953163513e+00  8.3846820161345690e+00  8.4943944681698671e+00 
 8.6055424930877642e+00  8.7181448751690187e+00  8.8322206444842024e+00  8.9477890801098461e+00 
 9.0648697133866332e+00  9.1834823312202456e+00  9.3036469794254284e+00  9.4253839661136993e+00 
 9.5487138651255687e+00  9.6736575195075059e+00  9.8002360450344810e+00  9.9284708337785776e+00 
 1.0058383557724303e+01  1.0189996172431211e+01  1.0323330920744434e+01  1.0458410336553792e+01 
 1.0595257248602051e+01  1.0733894784343066e+01  1.0874346373850342e+01  1.1016635753776795e+01 
 1.1160786971366292e+01  1.1306824388517706e+01  1.1454772685902116e+01  1.1604656867133910e+01 
 1.1756502262996472e+01  1.1910334535723075e+01  1.2066179683333965e+01  1.2224064044030014e+01 
 1.2384014300643956e+01  1.2546057485149861e+01  1.2710220983231586e+01  1.2876532538911034e+01 
 1.3045020259236951e+01  1.3215712619035088e+01  1.3388638465720518e+01  1.3563827024172909e+01 
 1.3741307901675604e+01  1.3921111092919327e+01  1.4103266985071343e+01  1.4287806362910972e+01 
 1.4474760414032298e+01  1.4664160734114928e+01  1.4856039332263769e+01  1.5050428636418546e+01 
 1.5247361498834357e+01  1.5446871201633662e+01  1.5648991462431093e+01  1.5853756440031788e+01 
 1.6061200740204324e+01  1.6271359421529166e+01  1.6484268001323652e+01  1.6699962461644517e+01 
 1.6918479255368926e+01  1.7139855312355110e+01  1.7364128045683596e+01  1.7591335357980103e+01 
 1.7821515647821194e+01  1.8054707816223694e+01  1.8290951273219090e+01  1.8530285944513892e+01 
 1.8772752278237220e+01  1.9018391251776507e+01  1.9267244378702959e+01  1.9519353715787314e+01 
 1.9774761870107589e+01  2.0033512006249754e+01  2.0295647853602677e+01  2.0561213713748458e+01 
 2.0830254467949544e+01  2.1102815584733737e+01  2.1378943127578484e+01  2.1658683762695755e+01 
 2.1942084766918679e+01  2.2229194035691496e+01  2.2520060091163973e+01  2.2814732090391789e+01 
 2.3113259833644147e+01  2.3415693772820177e+01  2.3722085019975477e+01  2.4032485355959974e+01 
 2.4346947239169264e+01  2.4665523814410065e+01  2.4988268921881829e+01  2.5315237106275887e+01 
 2.5646483625993625e+01  2.5982064462485273e+01  2.6322036329710901e+01  2.6666456683725244e+01 
 2.7015383732387878e+01  2.7368876445200524e+01  2.7726994563272967e+01  2.8089798609419546e+01 
 2.8457349898387545e+01  2.8829710547219619e+01  2.9206943485751680e+01  2.9589112467248185e+01 
 2.9976282079176652e+01  3.0368517754122895e+01  3.0765885780849597e+01  3.1168453315499061e+01 
 3.1576288392942757e+01  3.1989459938279484e+01  3.2408037778483809e+01  3.2832092654206946e+01 
 3.3261696231732202e+01  3.3696921115086688e+01  3.4137840858311542e+01  3.4584529977892821e+01 
 3.5037063965354889e+01  3.5495519300018699e+01  3.5959973461926985e+01  3.6430504944938555e+01 
 3.6907193269993940e+01  3.7390118998554719e+01  3.7879363746218282e+01  3.8375010196511511e+01 
 3.8877142114864192e+01  3.9385844362765624e+01  3.9901202912106498e+01  4.0423304859708232e+01 
 4.0952238442042649e+01  4.1488093050144045e+01  4.2030959244716598e+01  4.2580928771439254e+01 
 4.3138094576471019e+01  4.3702550822159033e+01  4.4274392902952307e+01  4.4853717461523502e+01 
 4.5440622405101891e+01  4.6035206922019817e+01  4.6637571498475815e+01  4.7247817935517055e+01 
 4.7866049366243715e+01  4.8492370273239082e+01  4.9126886506227159e+01  4.9769705299961537e+01 
 5.0420935292348311e+01  5.1080686542806205e+01  5.1749070550866811e+01  5.2426200275018310e+01 
 5.3112190151795708e+01  5.3807156115120911e+01  5.4511215615895800e+01  5.5224487641851759e+01 
 5.5947092737658807e+01  5.6679153025298000e+01  5.7420792224700357e+01  5.8172135674655699e+01 
 5.8933310353995402e+01  5.9704444903052000e+01  6.0485669645399462e+01  6.1277116609878732e+01 
 6.2078919552910556e+01  6.2891213981100641e+01  6.3714137174140717e+01  6.4547828208009037e+01 
 6.5392427978474558e+01  6.6248079224908778e+01  6.7114926554408825e+01  6.7993116466236600e+01 
 6.8882797376577344e+01  6.9784119643622475e+01  7.0697235592980306e+01  7.1622299543419629e+01 
 7.2559467832949792e+01  7.3508898845242257e+01  7.4470753036397880e+01  7.5445192962064382e+01 
 7.6432383304908186e+01  7.7432490902447014e+01  7.8445684775245141e+01  7.9472136155478623e+01 
 8.0512018515873748e+01  8.1565507599024443e+01  8.2632781447093166e+01  8.3714020431900479e+01 
 8.4809407285408241e+01  8.5919127130601836e+01  8.7043367512776328e+01  8.8182318431232105e+01 
 8.9336172371385217e+01  9.0505124337297843e+01  9.1689371884634440e+01  9.2889115154049065e+01 
 9.4104556905009829e+01  9.5335902550065654e+01  9.6583360189560935e+01  9.7847140646806011e+01 
 9.9127457503706054e+01  1.0042452713685715e+02  1.0173856875411447e+02  1.0306980443163889e+02 
 1.0441845915142834e+02  1.0578476083934042e+02  1.0716894040361230e+02  1.0857123177388486e+02 
 1.0999187194073721e+02  1.1143110099573887e+02  1.1288916217202559e+02  1.1436630188540651e+02 
 1.1586276977600896e+02  1.1737881875046811e+02 
  </PP_R>
  <PP_RAB>
 7.1541757059383612e-07  7.2477871461193334e-07  7.3426234795784339e-07  7.4387007338817376e-07 
 7.5360351463138949e-07  7.6346431666222785e-07  7.7345414597970031e-07  7.8357469088873904e-07 
 7.9382766178552173e-07  8.0421479144653252e-07  8.1473783532140701e-07  8.2539857182960532e-07 
 8.3619880266097160e-07  8.4714035308022171e-07  8.5822507223541883e-07  8.6945483347048186e-07 
 8.8083153464178790e-07  8.9235709843891303e-07  9.0403347270957022e-07  9.1586263078880235e-07 
 9.2784657183247953e-07  9.3998732115516104e-07  9.5228693057237870e-07  9.6474747874739870e-07 
 9.7737107154251861e-07  9.9015984237496717e-07  1.0031159525774531e-06  1.0162415917634375e-06 
 1.0295389781971833e-06  1.0430103591686468e-06  1.0566580113732754e-06  1.0704842412967742e-06 
 1.0844913856049091e-06  1.0986818115384052e-06  1.1130579173130197e-06  1.1276221325248462e-06 
 1.1423769185609188e-06  1.1573247690151959e-06  1.1724682101099812e-06  1.1878098011228631e-06 
 1.2033521348192367e-06  1.2190978378904906e-06  1.2350495713979178e-06  1.2512100312224485e-06 