  <PP_INFO>

############################################################
#    Opium Parameter File                                  #
############################################################
#-----------------------------------------------------------
#Command line   : /usr/local/bin/opium ar ar.log all ke rpt upf plot wp 
 
#Opium version  : 3.8 
#Compile Host   : vagvlan567.217.wlan.design.upenn.edu 
#Compile OS     : Darwin 14.1.0 i386 
#Compile Date   : Wed Mar 18 18:57:27 EDT 2015 
#-----------------------------------------------------------
#Execution Host : vagvlan567.0723.wlan.wireless-pennnet.upenn.edu 
#Execution Date : Wed Oct 14 17:12:56 2015
 
#-----------------------------------------------------------
############################################################
[Atom]
Ar                 # chemical symbol (max. 2 characters)
7                 # norb: number of orbitals
100 2.00  -       # reference configuration
200 2.00  -       # reference configuration
210 6.00  -       # reference configuration
300 2.00  -       # reference configuration
310 5.00  -       # reference configuration
400 0.00  -
320 0.00  -

[Pseudo]
4  1.58 1.35 1.05 3.07
opt

[XC]
hf
                                                                                                                 
[Optinfo]
7.07  10    # rc[a.u.]  Qc[sqrt(Ry)]  Nb
7.07  10    # rc[a.u.]  Qc[sqrt(Ry)]  Nb
7.07  10    # rc[a.u.]  Qc[sqrt(Ry)]  Nb
7.07  10    # rc[a.u.]  Qc[sqrt(Ry)]  Nb
[Configs]  
2                 # number of valence configurations
#
300 2.00   -1.4   # test configuration
310 5.50   -0.4   # test configuration
400 0.60   -
320 0.00  -
#
300 2.00   -1.4   # test configuration
310 5.00   -0.4   # test configuration
400 0.00   -
320 1.00  -

[KBdesign]
0  # local orbital [0..lmax]
0  # number of boxes
au      0.1 1.25 5.79
############################################################
  </PP_INFO>



<PP_HEADER>
   0         Version Number
   Ar        Element
   NC        Norm - Conserving pseudopotential
    F      Nonlinear Core Correction
SLA  PZ   NOGX NOGC    PZ   Exchange-Correlation functional
 8          Z valence
 0          Total energy
 0.000000   0.000000     Suggested cutoff for wfc and rho
 2           Max angular momentum component
 1150           Number of points in mesh
 3  2     Number of Wavefuncitons, Number of Projectors
 Wavefunctions         nl  l   occ
                       S  0  2.000000
                       P  1  5.000000
                       D  2  0.000000
</PP_HEADER>
<PP_MESH>
  <PP_R>
 3.8157141418444393e-05  3.8656422552734214e-05  3.9162236714441474e-05  3.9674669387363383e-05 
 4.0193807173841309e-05  4.0719737809396804e-05  4.1252550177558958e-05  4.1792334324886185e-05 
 4.2339181476184112e-05  4.2893184049922869e-05  4.3454435673855988e-05  4.4023031200843750e-05 
 4.4599066724883524e-05  4.5182639597349898e-05  4.5773848443447325e-05  4.6372793178877832e-05 
 4.6979575026727310e-05  4.7594296534572232e-05  4.8217061591810532e-05  4.8847975447219114e-05 
 4.9487144726741187e-05  5.0134677451506267e-05  5.0790683056086037e-05  5.1455272406989070e-05 
 5.2128557821397363e-05  5.2810653086148486e-05  5.3501673476965631e-05  5.4201735777939544e-05 
 5.4910958301265301e-05  5.5629460907237363e-05  5.6357365024506243e-05  5.7094793670600242e-05 
 5.7841871472715766e-05  5.8598724688779380e-05  5.9365481228786026e-05  6.0142270676415920e-05 
 6.0929224310934558e-05  6.1726475129379198e-05  6.2534157869035669e-05  6.3352409030209360e-05 
 6.4181366899294083e-05  6.5021171572142574e-05  6.5871964977743457e-05  6.6733890902207217e-05 
 6.7607095013066566e-05  6.8491724883894560e-05  6.9387930019244848e-05  7.0295861879918377e-05 
 7.1215673908560563e-05  7.2147521555593499e-05  7.3091562305487460e-05  7.4047955703375993e-05 
 7.5016863382019688e-05  7.5998449089122321e-05  7.6992878715004688e-05  7.8000320320640399e-05 
 7.9020944166058595e-05  8.0054922739118339e-05  8.1102430784659542e-05  8.2163645334034914e-05 
 8.3238745735029140e-05  8.4327913682168872e-05  8.5431333247429491e-05  8.6549190911343755e-05 
 8.7681675594517480e-05  8.8828978689557534e-05  8.9991294093417709e-05  9.1168818240167643e-05 
 9.2361750134190853e-05  9.3570291383816571e-05  9.4794646235392497e-05  9.6035021607802635e-05 
 9.7291627127437126e-05  9.8564675163619647e-05  9.9854380864498275e-05  1.0116096219340609e-04 
 1.0248463996569756e-04  1.0382563788606649e-04  1.0518418258635324e-04  1.0656050366384561e-04 
 1.0795483372008147e-04  1.0936740840015899e-04  1.1079846643256113e-04  1.1224824966950146e-04 
 1.1371700312779760e-04  1.1520497503027984e-04  1.1671241684774116e-04  1.1823958334143671e-04 
 1.1978673260613850e-04  1.2135412611375474e-04  1.2294202875751874e-04  1.2455070889675669e-04 
 1.2618043840224096e-04  1.2783149270213684e-04  1.2950415082855083e-04  1.3119869546468713e-04 
 1.3291541299262252e-04  1.3465459354170523e-04  1.3641653103758743e-04  1.3820152325189953e-04 
 1.4000987185257421e-04  1.4184188245482902e-04  1.4369786467281607e-04  1.4557813217194770e-04 
 1.4748300272190637e-04  1.4941279825034898e-04  1.5136784489731272e-04  1.5334847307033422e-04 
 1.5535501750028879e-04  1.5738781729796091e-04  1.5944721601135456e-04  1.6153356168375395e-04 
 1.6364720691254355e-04  1.6578850890879742e-04  1.6795782955764956e-04  1.7015553547945281e-04 
 1.7238199809173875e-04  1.7463759367198801e-04  1.7692270342122219e-04  1.7923771352842770e-04 
 1.8158301523582264e-04  1.8395900490497758e-04  1.8636608408380167e-04  1.8880465957440542e-04 
 1.9127514350185040e-04  1.9377795338380057e-04  1.9631351220108286e-04  1.9888224846917226e-04 
 2.0148459631061198e-04  2.0412099552838102e-04  2.0679189168022223e-04  2.0949773615394195e-04 
 2.1223898624369656e-04  2.1501610522727568e-04  2.1782956244439729e-04  2.2067983337602752e-04 
 2.2356739972473759e-04  2.2649274949611319e-04  2.2945637708122831e-04  2.3245878334019851e-04 
 2.3550047568682758e-04  2.3858196817436186e-04  2.4170378158236557e-04  2.4486644350473510e-04 
 2.4807048843886274e-04  2.5131645787596833e-04  2.5460490039261237e-04  2.5793637174340711e-04 
 2.6131143495494019e-04  2.6473066042092701e-04  2.6819462599860948e-04  2.7170391710641488e-04 
 2.7525912682289287e-04  2.7886085598694731e-04  2.8250971329937927e-04  2.8620631542575935e-04 
 2.8995128710064511e-04  2.9374526123316296e-04  2.9758887901397136e-04  3.0148279002362345e-04 
 3.0542765234234799e-04  3.0942413266126547e-04  3.1347290639506211e-04  3.1757465779613532e-04 
 3.2173008007023478e-04  3.2593987549361459e-04  3.3020475553172118e-04  3.3452544095943196e-04 
 3.3890266198286775e-04  3.4333715836279974e-04  3.4782967953967081e-04  3.5238098476025225e-04 
 3.5699184320595902e-04  3.6166303412284276e-04  3.6639534695328630e-04  3.7118958146942124e-04 
 3.7604654790829165e-04  3.8096706710878572e-04  3.8595197065036005e-04  3.9100210099357689e-04 
 3.9611831162248454e-04  4.0130146718885619e-04  4.0655244365831957e-04  4.1187212845839494e-04 
 4.1726142062847524e-04  4.2272123097176432e-04  4.2825248220920508e-04  4.3385610913542150e-04 
 4.3953305877670137e-04  4.4528429055104568e-04  4.5111077643031274e-04  4.5701350110448385e-04 
 4.6299346214807798e-04  4.6905167018874435e-04  4.7518914907806092e-04  4.8140693606456796e-04 
 4.8770608196906529e-04  4.9408765136220271e-04  5.0055272274439669e-04  5.0710238872809848e-04 
 5.1373775622244838e-04  5.2045994662034507e-04  5.2727009598796555e-04  5.3416935525676186e-04 
 5.4115889041797137e-04  5.4823988271967194e-04  5.5541352886641609e-04  5.6268104122147663e-04 
 5.7004364801173889e-04  5.7750259353527413e-04  5.8505913837162901e-04  5.9271455959486593e-04 
 6.0047015098939241e-04  6.0832722326861310e-04  6.1628710429644440e-04  6.2435113931172425e-04 
 6.3252069115556379e-04  6.4079714050166913e-04  6.4918188608967893e-04  6.5767634496155308e-04 
 6.6628195270105901e-04  6.7500016367638693e-04  6.8383245128594188e-04  6.9278030820735150e-04 
 7.0184524664973231e-04  7.1102879860925647e-04  7.2033251612806310e-04  7.2975797155655628e-04 
 7.3930675781913710e-04  7.4898048868341101e-04  7.5878079903291841e-04  7.6870934514343403e-04 
 7.7876780496288225e-04  7.8895787839491124e-04  7.9928128758618511e-04  8.0973977721742764e-04 
 8.2033511479827977e-04  8.3106909096600896e-04  8.4194351978813631e-04  8.5296023906901485e-04 
 8.6412111066042389e-04  8.7542802077622648e-04  8.8688288031114350e-04  8.9848762516370022e-04 
 9.1024421656339715e-04  9.2215464140216251e-04  9.3422091257014199e-04  9.4644506929588215e-04 
 9.5882917749096400e-04  9.7137533009914812e-04  9.8408564745008703e-04  9.9696227761766334e-04 
 1.0100073967830236e-03  1.0232232096023556e-03  1.0366119495794808e-03  1.0501758794433215e-03 
 1.0639172915303081e-03  1.0778385081717896e-03  1.0919418820865118e-03  1.1062297967782348e-03 
 1.1207046669385464e-03  1.1353689388549561e-03  1.1502250908243204e-03  1.1652756335716816e-03 
 1.1805231106745845e-03  1.1959700989929505e-03  1.2116192091045710e-03  1.2274730857463011e-03 
 1.2435344082610275e-03  1.2598058910504818e-03  1.2762902840339834e-03  1.2929903731131809e-03 
 1.3099089806428775e-03  1.3270489659080124e-03  1.3444132256068906e-03  1.3620046943407299e-03 
 1.3798263451096154e-03  1.3978811898149456e-03  1.4161722797684461e-03  1.4347027062078547e-03 
 1.4534756008193436e-03  1.4724941362667841e-03  1.4917615267279315e-03  1.5112810284376328e-03 
 1.5310559402381349e-03  1.5510896041365987e-03  1.5713854058699056e-03  1.5919467754768530e-03 
 1.6127771878778434e-03  1.6338801634621508e-03  1.6552592686828768e-03  1.6769181166596870e-03 
 1.6988603677894397e-03  1.7210897303648011e-03  1.7436099612009538e-03  1.7664248662705108e-03 
 1.7895383013467291e-03  1.8129541726551492e-03  1.8366764375337538e-03  1.8607091051017707e-03 
 1.8850562369372163e-03  1.9097219477633208e-03  1.9347104061439198e-03  1.9600258351879555e-03 
 1.9856725132631897e-03  2.0116547747192574e-03  2.0379770106201851e-03  2.0646436694864902e-03 
 2.0916592580469909e-03  2.1190283420004525e-03  2.1467555467872060e-03  2.1748455583708512e-03 
 2.2033031240302034e-03  2.2321330531615917e-03  2.2613402180916569e-03  2.2909295549007874e-03 
 2.3209060642573310e-03  2.3512748122627145e-03  2.3820409313076319e-03  2.4132096209394304e-03 
 2.4447861487408382e-03  2.4767758512202107e-03  2.5091841347134052e-03  2.5420164762974674e-03 
 2.5752784247162690e-03  2.6089756013182594e-03  2.6431137010064867e-03  2.6776984932010504e-03 
 2.7127358228141493e-03  2.7482316112378748e-03  2.7841918573449568e-03  2.8206226385025760e-03 
 2.8575301115994572e-03  2.8949205140863959e-03  2.9328001650304070e-03  2.9711754661826562e-03 
 3.0100529030603748e-03  3.0494390460429309e-03  3.0893405514822252e-03  3.1297641628276491e-03 
 3.1707167117657328e-03  3.2122051193747177e-03  3.2542363972942355e-03  3.2968176489102932e-03 
 3.3399560705557624e-03  3.3836589527265733e-03  3.4279336813138341e-03  3.4727877388520479e-03 
 3.5182287057836975e-03  3.5642642617403500e-03  3.6109021868405305e-03  3.6581503630045828e-03 
 3.7060167752867353e-03  3.7545095132245892e-03  3.8036367722062750e-03  3.8534068548554895e-03 
 3.9038281724346527e-03  3.9549092462664460e-03  4.0066587091739251e-03  4.0590853069394891e-03 
 4.1121978997829423e-03  4.1660054638588875e-03  4.2205170927737210e-03  4.2757419991224718e-03 
 4.3316895160457579e-03  4.3883690988070923e-03  4.4457903263908673e-03  4.5039629031212143e-03 
 4.5628966603020564e-03  4.6226015578786249e-03  4.6830876861207130e-03  4.7443652673279570e-03 
 4.8064446575574286e-03  4.8693363483738351e-03  4.9330509686226036e-03  4.9975992862262078e-03 
 5.0629922100039549e-03  5.1292407915156024e-03  5.1963562269291066e-03  5.2643498589127922e-03 
 5.3332331785522951e-03  5.4030178272925847e-03  5.4737155989053972e-03  5.5453384414823918e-03 
 5.6178984594544394e-03  5.6914079156372760e-03  5.7658792333039575e-03  5.8413249982844171e-03 
 5.9177579610925051e-03  5.9951910390808553e-03  6.0736373186239430e-03  6.1531100573297302e-03 
 6.2336226862801970e-03  6.3151888123012699e-03  6.3978222202623813e-03  6.4815368754061542e-03 
 6.5663469257085548e-03  6.6522667042699414e-03  6.7393107317373878e-03  6.8274937187587093e-03 
 6.9168305684686017e-03  7.0073363790072868e-03  7.0990264460721614e-03  7.1919162655027929e-03 
 7.2860215358997492e-03  7.3813581612777101e-03  7.4779422537532732e-03  7.5757901362679464e-03 
 7.6749183453467618e-03  7.7753436338929959e-03  7.8770829740194212e-03  7.9801535599166775e-03 
 8.0845728107590935e-03  8.1903583736485965e-03  8.2975281265970889e-03  8.4061001815478962e-03 
 8.5160928874367173e-03  8.6275248332926407e-03  8.7404148513797412e-03  8.8547820203797520e-03 
 8.9706456686164428e-03  9.0880253773221332e-03  9.2069409839469728e-03  9.3274125855115093e-03 
 9.4494605420031401e-03  9.5731054798170005e-03  9.6983682952418663e-03  9.8252701579916932e-03 
 9.9538325147833038e-03  1.0084077092961000e-02  1.0216025904168483e-02  1.0349701248068900e-02 
 1.0485125716113533e-02  1.0622322195359801e-02  1.0761313872339241e-02  1.0902124236976072e-02 
 1.1044777086557073e-02  1.1189296529753331e-02  1.1335706990694725e-02  1.1484033213097626e-02 
 1.1634300264446651e-02  1.1786533540231126e-02  1.1940758768236991e-02  1.2097002012894849e-02 
 1.2255289679684920e-02  1.2415648519599646e-02  1.2578105633664618e-02  1.2742688477518785e-02 
 1.2909424866054488e-02  1.3078342978118230e-02  1.3249471361272998e-02  1.3422838936622843e-02 
 1.3598475003700634e-02  1.3776409245419736e-02  1.3956671733090512e-02  1.4139292931502397e-02 
 1.4324303704072592e-02  1.4511735318062003e-02  1.4701619449859501e-02  1.4893988190335303e-02 
 1.5088874050264402e-02  1.5286309965820977e-02  1.5486329304144671e-02  1.5688965868979741e-02 
 1.5894253906387917e-02  1.6102228110536125e-02  1.6312923629559880e-02  1.6526376071503368e-02 
 1.6742621510337310e-02  1.6961696492055561e-02  1.7183638040851448e-02  1.7408483665374955e-02 
 1.7636271365071805e-02  1.7867039636605367e-02  1.8100827480362802e-02  1.8337674407046135e-02 
 1.8577620444349699e-02  1.8820706143724893e-02  1.9066972587233475e-02  1.9316461394490541e-02 
 1.9569214729698321e-02  1.9825275308772063e-02  2.0084686406559044e-02  2.0347491864152231e-02 
 2.0613736096299455e-02  2.0883464098909642e-02  2.1156721456657208e-02  2.1433554350685995e-02 
 2.1714009566413978e-02  2.1998134501440128e-02  2.2285977173554735e-02  2.2577586228854432e-02 
 2.2873010949963642e-02  2.3172301264363378e-02  2.3475507752829108e-02  2.3782681657979046e-02 
 2.4093874892934262e-02  2.4409140050092142e-02  2.4728530410014601e-02  2.5052099950432668e-02 
 2.5379903355368758e-02  2.5711996024378531e-02  2.6048434081913464e-02  2.6389274386806032e-02 
 2.6734574541878994e-02  2.7084392903680407e-02  2.7438788592346022e-02  2.7797821501590714e-02 
 2.8161552308830700e-02  2.8530042485438074e-02  2.8903354307129744e-02  2.9281550864492103e-02 
 2.9664696073643488e-02  3.0052854687036161e-02  3.0446092304399645e-02  3.0844475383827216e-02 
 3.1248071253007492e-02  3.1656948120602983e-02  3.2071175087777432e-02  3.2490822159874214e-02 
 3.2915960258247307e-02  3.3346661232247221e-02  3.3782997871363664e-02  3.4225043917527169e-02 
 3.4672874077571657e-02  3.5126564035860036e-02  3.5586190467075146e-02  3.6051831049177724e-02 
 3.6523564476534459e-02  3.7001470473217342e-02  3.7485629806477280e-02  3.7976124300393946e-02 
 3.8473036849704219e-02  3.8976451433811649e-02  3.9486453130979114e-02  4.0003128132707323e-02 
 4.0526563758301243e-02  4.1056848469627462e-02  4.1594071886064315e-02  4.2138324799647832e-02 
 4.2689699190415778e-02  4.3248288241952509e-02  4.3814186357137255e-02  4.4387489174098349e-02 
 4.4968293582376431e-02  4.5556697739298775e-02  4.6152801086568412e-02  4.6756704367069815e-02 
 4.7368509641894728e-02  4.7988320307590752e-02  4.8616241113635612e-02  4.9252378180140027e-02 
 4.9896839015782318e-02  5.0549732535977616e-02  5.1211169081284709e-02  5.1881260436054073e-02 
 5.2560119847319550e-02  5.3247862043937395e-02  5.3944603255975727e-02  5.4650461234357697e-02 
 5.5365555270761653e-02  5.6090006217781742e-02  5.6823936509352330e-02  5.7567470181439422e-02 
 5.8320732893003310e-02  5.9083851947235116e-02  5.9856956313071280e-02  6.0640176646989702e-02 
 6.1433645315090962e-02  6.2237496415468482e-02  6.3051865800871479e-02  6.3876891101664418e-02 
 6.4712711749086660e-02  6.5559468998817025e-02  6.6417305954846059e-02  6.7286367593661078e-02 
 6.8166800788747484e-02  6.9058754335410769e-02  6.9962378975923251e-02  7.0877827424999901e-02 
 7.1805254395607532e-02  7.2744816625111397e-02  7.3696672901764626e-02  7.4660984091543453e-02 
 7.5637913165334109e-02  7.6627625226475260e-02  7.7630287538660844e-02  7.8646069554208053e-02 
 7.9675142942695190e-02  8.0717681619974252e-02  8.1773861777562906e-02  8.2843861912421685e-02 
 8.3927862857120061e-02  8.5026047810397729e-02  8.6138602368125566e-02  8.7265714554671817e-02 
 8.8407574854678650e-02  8.9564376245254526e-02  9.0736314228587786e-02  9.1923586864986806e-02 
 9.3126394806353041e-02  9.4344941330091386e-02  9.5579432373464612e-02  9.6830076568397219e-02 
 9.8097085276734858e-02  9.9380672625964811e-02  1.0068105554540417e-01  1.0199845380286145e-01 
 1.0333309004177750e-01  1.0468518981885337e-01  1.0605498164216949e-01  1.0744269700980427e-01 
 1.0884857044895771e-01  1.1027283955558714e-01  1.1171574503456151e-01  1.1317753074034100e-01 
 1.1465844371818908e-01  1.1615873424592370e-01  1.1767865587621491e-01  1.1921846547943581e-01 
 1.2077842328707443e-01  1.2235879293571267e-01  1.2395984151158282e-01  1.2558183959570482e-01 
 1.2722506130961542e-01  1.2888978436169532e-01  1.3057629009410249e-01  1.3228486353031979e-01 
 1.3401579342332448e-01  1.3576937230438824e-01  1.3754589653251570e-01  1.3934566634452969e-01 
 1.4116898590581206e-01  1.4301616336170836e-01  1.4488751088960511e-01  1.4678334475168847e-01 
 1.4870398534839346e-01  1.5064975727255214e-01  1.5262098936425120e-01  1.5461801476640524e-01 
 1.5664117098106067e-01  1.5869079992643301e-01  1.6076724799469239e-01  1.6287086611050447e-01 
 1.6500200979033763e-01  1.6716103920254610e-01  1.6934831922823929e-01  1.7156421952294740e-01 
 1.7380911457909434e-01  1.7608338378928762e-01  1.7838741151043680e-01  1.8072158712871056e-01 
 1.8308630512534391e-01  1.8548196514330656e-01  1.8790897205484344e-01  1.9036773602989915e-01 
 1.9285867260543788e-01  1.9538220275566887e-01  1.9793875296319410e-01  2.0052875529108352e-01 
 2.0315264745589495e-01  2.0581087290164937e-01  2.0850388087477401e-01  2.1123212650002582e-01 
 2.1399607085740907e-01  2.1679618106009857e-01  2.1963293033338313e-01  2.2250679809464163e-01 
 2.2541827003436582e-01  2.2836783819824311e-01  2.3135600107031346e-01  2.3438326365721437e-01 
 2.3745013757352817e-01  2.4055714112824619e-01  2.4370479941236459e-01  2.4689364438762429e-01 
 2.5012421497641618e-01  2.5339705715285893e-01  2.5671272403507006e-01  2.6007177597864423e-01 
 2.6347478067135477e-01  2.6692231322909421e-01  2.7041495629307033e-01  2.7395330012827368e-01 
 2.7753794272323412e-01  2.8116948989108193e-01  2.8484855537193193e-01  2.8857576093660686e-01 
 2.9235173649171836e-01  2.9617712018612230e-01  3.0005255851876794e-01  3.0397870644795738e-01 
 3.0795622750203577e-01  3.1198579389152714e-01  3.1606808662274249e-01  3.2020379561286971e-01 
 3.2439361980657150e-01  3.2863826729410883e-01  3.3293845543100969e-01  3.3729491095930419e-01 
 3.4170837013034527e-01  3.4617957882923739e-01  3.5070929270089252e-01  3.5529827727773616e-01 
 3.5994730810908399e-01  3.6465717089221167e-01  3.6942866160513949e-01  3.7426258664115453e-01 
 3.7915976294509307e-01  3.8412101815140631e-01  3.8914719072403292e-01  3.9423913009809919e-01 
 3.9939769682347931e-01  4.0462376271022782e-01  4.0991821097591802e-01  4.1528193639490807e-01 
 4.2071584544956014e-01  4.2622085648343755e-01  4.3179789985650752e-01  4.3744791810237404e-01 
 4.4317186608756820e-01  4.4897071117292309e-01  4.5484543337705996e-01  4.6079702554201368e-01 
 4.6682649350102540e-01  4.7293485624853115e-01  4.7912314611237355e-01  4.8539240892826840e-01 
 4.9174370421655378e-01  4.9817810536124862e-01  5.0469669979146159e-01  5.1130058916516619e-01 
 5.1799088955538464e-01  5.2476873163880633e-01  5.3163526088687529e-01  5.3859163775937757e-01 
 5.4563903790056134e-01  5.5277865233782408e-01  5.6001168768299836e-01  5.6733936633627335e-01 
 5.7476292669278151e-01  5.8228362335189232e-01  5.8990272732924076e-01  5.9762152627153353e-01 
 6.0544132467416323e-01  6.1336344410167176e-01  6.2138922341109881e-01  6.2952001897824783e-01 
 6.3775720492692267e-01  6.4610217336115405e-01  6.5455633460046903e-01  6.6312111741823898e-01 
 6.7179796928314506e-01  6.8058835660380401e-01  6.8949376497659520e-01  6.9851569943672942e-01 
 7.0765568471260321e-01  7.1691526548348250e-01  7.2629600664055616e-01  7.3579949355140684e-01 
 7.4542733232794167e-01  7.5518115009782916e-01  7.6506259527948728e-01  7.7507333786067056e-01 
 7.8521506968070343e-01  7.9548950471639857e-01  8.0589837937173281e-01  8.1644345277129704e-01 
 8.2712650705759405e-01  8.3794934769222484e-01  8.4891380376101599e-01  8.6002172828313994e-01 
 8.7127499852427859e-01  8.8267551631388663e-01  8.9422520836660491e-01  9.0592602660787946e-01 
 9.1777994850384248e-01  9.2978897739550759e-01  9.4195514283734028e-01  9.5428050094025685e-01 
 9.6676713471911235e-01  9.7941715444473454e-01  9.9223269800056735e-01  1.0052159312439701e+00 
 1.0183690483722645e+00  1.0316942722935505e+00  1.0451938550023863e+00  1.0588700779603801e+00 
 1.0727252524817623e+00  1.0867617201240038e+00  1.1009818530835445e+00  1.1153880545966992e+00 
 1.1299827593458125e+00  1.1447684338707236e+00  1.1597475769856185e+00  1.1749227202013350e+00 
 1.1902964281531956e+00  1.2058712990344347e+00  1.2216499650353010e+00  1.2376350927879032e+00 
 1.2538293838168801e+00  1.2702355749959553e+00  1.2868564390104880e+00  1.3036947848260563e+00 
 1.3207534581631801e+00  1.3380353419782545e+00  1.3555433569507767e+00  1.3732804619769479e+00 
 1.3912496546697335e+00  1.4094539718654673e+00  1.4278964901370828e+00  1.4465803263140635e+00 
 1.4655086380091924e+00  1.4846846241521972e+00  1.5041115255303765e+00  1.5237926253363014e+00 
 1.5437312497226823e+00  1.5639307683644958e+00  1.5843945950284724e+00  1.6051261881500183e+00 
 1.6261290514177174e+00  1.6474067343654502e+00  1.6689628329722783e+00  1.6908009902701717e+00 
 1.7129248969596906e+00  1.7353382920337230e+00  1.7580449634093815e+00  1.7810487485681739e+00 
 1.8043535352045421e+00  1.8279632618828963e+00  1.8518819187032380e+00  1.8761135479754987e+00 
 1.9006622449026986e+00  1.9255321582730476e+00  1.9507274911610972e+00  1.9762525016380732e+00 
 2.0021115034915016e+00  2.0283088669542355e+00  2.0548490194430564e+00  2.0817364463069028e+00 
 2.1089756915849089e+00  2.1365713587743591e+00  2.1645281116086883e+00  2.1928506748456660e+00 
 2.2215438350658894e+00  2.2506124414817283e+00  2.2800614067568525e+00  2.3098957078364855e+00 
 2.3401203867885183e+00  2.3707405516556310e+00  2.4017613773185658e+00  2.4331881063706913e+00 
 2.4650260500040169e+00  2.4972805889067935e+00  2.5299571741728695e+00  2.5630613282229184e+00 
 2.5965986457377714e+00  2.6305747946039100e+00  2.6649955168713593e+00  2.6998666297241067e+00 
 2.7351940264632213e+00  2.7709836775028345e+00  2.8072416313791551e+00  2.8439740157726856e+00 
 2.8811870385438145e+00  2.9188869887819613e+00  2.9570802378684458e+00  2.9957732405532669e+00 
 3.0349725360459718e+00  3.0746847491207969e+00  3.1149165912362702e+00  3.1556748616694654e+00 
 3.1969664486650995e+00  3.2387983305996424e+00  3.2811775771607099e+00  3.3241113505418372e+00 
 3.3676069066529126e+00  3.4116715963464430e+00  3.4563128666598644e+00  3.5015382620741100e+00 
 3.5473554257886462e+00  3.5937721010131898e+00  3.6407961322763294e+00  3.6884354667512707e+00 
 3.7366981555989267e+00  3.7855923553285820e+00  3.8351263291763638e+00  3.8853084485017479e+00 
 3.9361471942023383e+00  3.9876511581471608e+00  4.0398290446287124e+00  4.0926896718339840e+00 
 4.1462419733347922e+00  4.2004949995975496e+00  4.2554579195128248e+00  4.3111400219448992e+00 
 4.3675507173016133e+00  4.4246995391247435e+00  4.4825961457011987e+00  4.5412503216952906e+00 
 4.6006719798023639e+00  4.6608711624240682e+00  4.7218580433655459e+00  4.7836429295548317e+00 
 4.8462362627847453e+00  4.9096486214775803e+00  4.9738907224728841e+00  5.0389734228386267e+00 
 5.1049077217060814e+00  5.1717047621286705e+00  5.2393758329652176e+00  5.3079323707877561e+00 
 5.3773859618143511e+00  5.4477483438671905e+00  5.5190314083563123e+00  5.5912472022892752e+00 
 5.6644079303071333e+00  5.7385259567470523e+00  5.8136138077319091e+00  5.8896841732872360e+00 
 5.9667499094858663e+00  6.0448240406206413e+00  6.1239197614055474e+00  6.2040504392056528e+00 
 6.2852296162962240e+00  6.3674710121514035e+00  6.4507885257628450e+00  6.5351962379886306e+00 
 6.6207084139330341e+00  6.7073395053573206e+00  6.7951041531221286e+00  6.8840171896618187e+00 
 6.9740936414911889e+00  7.0653487317449883e+00  7.1577978827506668e+00  7.2514567186347811e+00 
 7.3463410679635137e+00  7.4424669664177356e+00  7.5398506595030703e+00  7.6385086052954376e+00 
 7.7384574772224886e+00  7.8397141668814676e+00  7.9422957868939266e+00  8.0462196737978040e+00 
 8.1515033909773500e+00  8.2581647316313216e+00  8.3662217217801711e+00  8.4756926233124190e+00 
 8.5865959370709746e+00  8.6989504059798222e+00  8.8127750182116262e+00  8.9280890103967643e+00 
 9.0449118708743743e+00  9.1632633429859265e+00  9.2831634284118998e+00  9.4046323905520985e+00 
 9.5276907579502375e+00  9.6523593277632944e+00  9.7786591692762919e+00  9.9066116274630538e+00 
 1.0036238326593550e+01  1.0167561173888458e+01  1.0300602363221552e+01  1.0435384378870442e+01 
 1.0571929999316586e+01  1.0710262301094827e+01  1.0850404662693418e+01  1.0992380768505015e+01 
 1.1136214612829418e+01  1.1281930503928658e+01  1.1429553068135149e+01  1.1579107254013596e+01 
 1.1730618336577367e+01  1.1884111921560027e+01  1.2039613949742765e+01  1.2197150701338455e+01 
 1.2356748800433072e+01  1.2518435219485218e+01  1.2682237283884543e+01  1.2848182676569799e+01 
 1.3016299442707334e+01  1.3186615994430717e+01  1.3359161115642578e+01  1.3533963966879080e+01 
 1.3711054090238129e+01  1.3890461414372062e+01  1.4072216259545664e+01  1.4256349342760368e+01 
 1.4442891782945489e+01  1.4631875106217406e+01  1.4823331251207556e+01  1.5017292574460116e+01 
 1.5213791855900373e+01  1.5412862304374572e+01  1.5614537563262315e+01  1.5818851716162360e+01 
 1.6025839292652833e+01  1.6235535274126807e+01  1.6447975099704291e+01  1.6663194672221362e+01 
 1.6881230364298055e+01  1.7102119024485276e+01  1.7325897983492336e+01  1.7552605060495914e+01 
 1.7782278569531616e+01  1.8014957325969114e+01  1.8250680653072038e+01  1.8489488388643721e+01 
 1.8731420891759853e+01  1.8976519049589285e+01  1.9224824284304052e+01  1.9476378560079805e+01 
 1.9731224390187879e+01  1.9989404844180118e+01  2.0250963555167740e+01  2.0515944727195436e+01 
 2.0784393142712002e+01  2.1056354170138512e+01  2.1331873771535939e+01  2.1610998510372674e+01 
 2.1893775559393930e+01  2.2180252708594029e+01  2.2470478373293030e+01  2.2764501602319026e+01 
 2.3062372086297533e+01  2.3364140166049296e+01  2.3669856841098039e+01  2.3979573778289478e+01 
 2.4293343320523149e+01  2.4611218495598497e+01  2.4933253025176683e+01  2.5259501333859678e+01 
 2.5590018558388152e+01  2.5924860556959757e+01  2.6264083918669126e+01  2.6607745973071800e+01 
 2.6955904799872943e+01  2.7308619238742917e+01  2.7665948899261402e+01  2.8027954170991492e+01 
 2.8394696233685721e+01  2.8766237067625568e+01  2.9142639464096273e+01  2.9523967035998712e+01 
 2.9910284228600126e+01  3.0301656330425551e+01  3.0698149484291687e+01  3.1099830698485235e+01 
 3.1506767858087429e+01  3.1919029736446799e+01  3.2336686006802012e+01  3.2759807254056867e+01 
 3.3188464986709107e+01  3.3622731648935861e+01  3.4062680632836646e+01  3.4508386290836853e+01 
 3.4959923948253497e+01  3.5417369916025415e+01  3.5880801503609888e+01  3.6350297032048267e+01 
 3.6825935847202281e+01  3.7307798333163760e+01  3.7795965925839710e+01  3.8290521126715184e+01 
 3.8791547516796221e+01  3.9299129770735227e+01  3.9813353671141229e+01  4.0334306123077276e+01 
 4.0862075168747680e+01  4.1396750002377360e+01  4.1938420985285646e+01  4.2487179661157938e+01 
 4.3043118771516568e+01  4.3606332271394365e+01  4.4176915345213324e+01  4.4754964422870955e+01 
 4.5340577196037195e+01  4.5933852634664525e+01  4.6534891003714129e+01  4.7143793880100901e+01 
 4.7760664169860192e+01  4.8385606125539198e+01  4.9018725363815840e+01  4.9660128883348278e+01 
 5.0309925082857916e+01  5.0968223779449048e+01  5.1635136227168204e+01  5.2310775135806459e+01 
 5.2995254689947288e+01  5.3688690568264548e+01  5.4391199963072118e+01  5.5102901600129769e+01 
 5.5823915758708075e+01  5.6554364291915924e+01  5.7294370647293967e+01  5.8044059887677548e+01 
 5.8803558712332624e+01  5.9572995478368235e+01  6.0352500222429200e+01  6.1142204682672528e+01 
 6.1942242321031586e+01  6.2752748345771437e+01  6.3573859734339329e+01  6.4405715256514270e+01 
 6.5248455497859396e+01  6.6102222883481403e+01  6.6967161702100299e+01  6.7843418130435168e+01 
 6.8731140257907967e+01  6.9630478111671124e+01  7.0541583681962436e+01  7.1464610947791783e+01 
 7.2399715902963990e+01  7.3347056582442136e+01  7.4306793089055802e+01  7.5279087620558869e+01 
 7.6264104497041330e+01  7.7262010188699733e+01  7.8272973343971088e+01  7.9297164818034815e+01 
 8.0334757701687721e+01  8.1385927350596702e+01  8.2450851414934320e+01  8.3529709869402211e+01 
 8.4622685043646669e+01  8.5729961653073673e+01  8.6851726830065672e+01  8.7988170155607449e+01 
 8.9139483691325879e+01  9.0305862011948733e+01  9.1487502238188313e+01  9.2684604070055244e+01 