  <PP_INFO>

############################################################
#    Opium Parameter File                                  #
############################################################
#-----------------------------------------------------------
#Command line   : /usr/local/bin/opium b b.log all ke upf rpt plot wp 
 
#Opium version  : 3.8 
#Compile Host   : vagvlan567.217.wlan.design.upenn.edu 
#Compile OS     : Darwin 14.1.0 i386 
#Compile Date   : Wed Mar 18 18:57:27 EDT 2015 
#-----------------------------------------------------------
#Execution Host : vagvlan567.0951.wlan.wireless-pennnet.upenn.edu 
#Execution Date : Tue Oct 13 17:19:46 2015
 
#-----------------------------------------------------------
############################################################
[Atom]
B  
3
100   2.00   -
200   2.00   -
210   0.00   -

[Pseudo]
2  1.54 1.82
opt

[Optinfo]
7.07  10
7.07  10
conmax

[Configs]
3
#
200  2.00  -
210  0.00  -
#
200  2.00  -
210  0.50  -
#
200  2.00  -
210  1.00  -
[XC]
gga
############################################################
  </PP_INFO>



<PP_HEADER>
   0         Version Number
   B        Element
   NC        Norm - Conserving pseudopotential
    F      Nonlinear Core Correction
SLA  PW   PBE  PBE     PBE  Exchange-Correlation functional
 3          Z valence
 0          Total energy
 0.000000   0.000000     Suggested cutoff for wfc and rho
 1           Max angular momentum component
 1118           Number of points in mesh
 2  1     Number of Wavefuncitons, Number of Projectors
 Wavefunctions         nl  l   occ
                       S  0  2.000000
                       P  1  0.000000
</PP_HEADER>
<PP_MESH>
  <PP_R>
 5.8480354764257307e-05  5.9245562449502194e-05  6.0020782775811209e-05  6.0806146757264619e-05 
 6.1601787122244508e-05  6.2407838335866276e-05  6.3224436622703490e-05  6.4051719989810217e-05 
 6.4889828250044512e-05  6.5738903045697248e-05  6.6599087872429552e-05  6.7470528103524510e-05 
 6.8353371014455392e-05  6.9247765807775358e-05  7.0153863638333283e-05  7.1071817638819007e-05 
 7.2001782945643489e-05  7.2943916725156990e-05  7.3898378200210627e-05  7.4865328677065378e-05 
 7.5844931572653288e-05  7.6837352442195257e-05  7.7842759007180285e-05  7.8861321183710896e-05 
 7.9893211111219044e-05  8.0938603181558564e-05  8.1997674068477489e-05  8.3070602757476366e-05 
 8.4157570576057336e-05  8.5258761224368820e-05  8.6374360806251314e-05  8.7504557860689400e-05 
 8.8649543393675337e-05  8.9809510910489215e-05  9.0984656448402291e-05  9.2175178609807423e-05 
 9.3381278595783479e-05  9.4603160240098685e-05  9.5841030043659136e-05  9.7095097209407873e-05 
 9.8365573677680742e-05  9.9652674162024831e-05  1.0095661618548519e-04  1.0227762011736741e-04 
 1.0361590921048010e-04  1.0497170963886524e-04  1.0634525053602218e-04  1.0773676403363170e-04 
 1.0914648530078682e-04  1.1057465258373708e-04  1.1202150724615224e-04  1.1348729380991404e-04 
 1.1497225999644043e-04  1.1647665676855134e-04  1.1800073837288183e-04  1.1954476238285053e-04 
 1.2110898974219001e-04  1.2269368480904706e-04  1.2429911540065965e-04  1.2592555283861900e-04 
 1.2757327199472293e-04  1.2924255133743074e-04  1.3093367297892434e-04  1.3264692272278619e-04 
 1.3438259011230069e-04  1.3614096847938770e-04  1.3792235499417643e-04  1.3972705071522786e-04 
 1.4155536064041393e-04  1.4340759375846369e-04  1.4528406310118256e-04  1.4718508579635568e-04 
 1.4911098312134311e-04  1.5106208055737659e-04  1.5303870784456666e-04  1.5504119903762939e-04 
 1.5706989256234253e-04  1.5912513127274024e-04  1.6120726250905639e-04  1.6331663815642532e-04 
 1.6545361470435207e-04  1.6761855330695946e-04  1.6981181984402412e-04  1.7203378498281097e-04 
 1.7428482424071697e-04  1.7656531804873454e-04  1.7887565181574474e-04  1.8121621599365313e-04 
 1.8358740614337661e-04  1.8598962300169405e-04  1.8842327254897211e-04  1.9088876607777658e-04 
 1.9338652026238190e-04  1.9591695722919020e-04  1.9848050462807154e-04  2.0107759570463783e-04 
 2.0370866937346248e-04  2.0637417029225743e-04  2.0907454893702229e-04  2.1181026167817513e-04 
 2.1458177085768049e-04  2.1738954486718616e-04  2.2023405822718260e-04  2.2311579166719794e-04 
 2.2603523220704201e-04  2.2899287323911477e-04  2.3198921461179016e-04  2.3502476271389174e-04 
 2.3810003056027362e-04  2.4121553787852124e-04  2.4437181119678667e-04  2.4756938393277300e-04 
 2.5080879648388296e-04  2.5409059631854787e-04  2.5741533806875110e-04  2.6078358362376114e-04 
 2.6419590222509374e-04  2.6765287056271415e-04  2.7115507287249940e-04  2.7470310103497542e-04 
 2.7829755467534628e-04  2.8193904126483268e-04  2.8562817622333471e-04  2.8936558302344124e-04 
 2.9315189329579678e-04  2.9698774693584918e-04  3.0087379221199328e-04  3.0481068587513000e-04 
 3.0879909326965850e-04  3.1283968844592129e-04  3.1693315427412015e-04  3.2108018255972294e-04 
 3.2528147416038047e-04  3.2953773910437219e-04  3.3384969671060424e-04  3.3821807571017499e-04 
 3.4264361436953247e-04  3.4712706061524343e-04  3.5166917216039427e-04  3.5627071663264716e-04 
 3.6093247170396946e-04  3.6565522522206398e-04  3.7043977534351581e-04  3.7528693066868314e-04 
 3.8019751037835273e-04  3.8517234437218309e-04  3.9021227340895983e-04  3.9531814924868559e-04 
 4.0049083479652985e-04  4.0573120424866160e-04  4.1104014323999131e-04  4.1641854899384355e-04 
 4.2186733047359215e-04  4.2738740853627582e-04  4.3297971608822550e-04  4.3864519824272815e-04 
 4.4438481247975137e-04  4.5019952880776253e-04  4.5609032992766069e-04  4.6205821139885561e-04 
 4.6810418180752027e-04  4.7422926293704361e-04  4.8043448994071491e-04  4.8672091151666662e-04 
 4.9308959008510756e-04  4.9954160196787382e-04  5.0607803757032996e-04  5.1270000156565022e-04 
 5.1940861308151065e-04  5.2620500588922506e-04  5.3309032859535314e-04  5.4006574483582035e-04 
 5.4713243347257357e-04  5.5429158879281219e-04  5.6154442071082390e-04  5.6889215497246595e-04 
 5.7633603336231659e-04  5.8387731391354100e-04  5.9151727112050122e-04  5.9925719615414920e-04 
 6.0709839708023732e-04  6.1504219908038488e-04  6.2308994467603711e-04  6.3124299395535374e-04 
 6.3950272480306828e-04  6.4787053313335294e-04  6.5634783312573165e-04  6.6493605746408056e-04 
 6.7363665757875244e-04  6.8245110389187551e-04  6.9138088606585601e-04  7.0042751325513554e-04 
 7.0959251436123990e-04  7.1887743829117010e-04  7.2828385421916939e-04  7.3781335185191775e-04 
 7.4746754169719625e-04  7.5724805533606654e-04  7.6715654569861234e-04  7.7719468734328801e-04 
 7.8736417673992319e-04  7.9766673255643027e-04  8.0810409594926354e-04  8.1867803085767794e-04 
 8.2939032430184043e-04  8.4024278668483972e-04  8.5123725209864721e-04  8.6237557863408647e-04 
 8.7365964869485190e-04  8.8509136931564226e-04  8.9667267248444925e-04  9.0840551546907383e-04 
 9.2029188114790546e-04  9.3233377834503505e-04  9.4453324216974954e-04  9.5689233436047105e-04 
 9.6941314363319586e-04  9.8209778603449175e-04  9.9494840529911529e-04  1.0079671732123078e-03 
 1.0211562899768325e-03  1.0345179845848138e-03  1.0480545151944432e-03  1.0617681695116125e-03 
 1.0756612651765393e-03  1.0897361501554586e-03  1.1039952031374318e-03  1.1184408339363515e-03 
 1.1330754838982029e-03  1.1479016263136624e-03  1.1629217668360857e-03  1.1781384439049707e-03 
 1.1935542291749591e-03  1.2091717279504525e-03  1.2249935796259154e-03  1.2410224581319380e-03 
 1.2572610723871388e-03  1.2737121667559758e-03  1.2903785215125526e-03  1.3072629533104909e-03 
 1.3243683156589510e-03  1.3416974994048833e-03  1.3592534332215835e-03  1.3770390841036533e-03 
 1.3950574578684223e-03  1.4133115996639444e-03  1.4318045944836267e-03  1.4505395676876101e-03 
 1.4695196855309572e-03  1.4887481556987582e-03  1.5082282278482367e-03  1.5279631941579508e-03 
 1.5479563898841777e-03  1.5682111939245812e-03  1.5887310293892520e-03  1.6095193641792235e-03 
 1.6305797115725527e-03  1.6519156308180752e-03  1.6735307277369251e-03  1.6954286553319288e-03 
 1.7176131144049666e-03  1.7400878541824244e-03  1.7628566729488160e-03  1.7859234186887070e-03 
 1.8092919897370256e-03  1.8329663354378994e-03  1.8569504568120999e-03  1.8812484072332227e-03 
 1.9058642931127218e-03  1.9308022745938979e-03  1.9560665662549767e-03  1.9816614378213803e-03 
 2.0075912148873215e-03  2.0338602796468397e-03  2.0604730716344030e-03  2.0874340884751976e-03 
 2.1147478866452392e-03  2.1424190822414311e-03  2.1704523517616838e-03  2.1988524328952711e-03 
 2.2276241253234991e-03  2.2567722915308700e-03  2.2863018576268434e-03  2.3162178141783759e-03 
 2.3465252170533266e-03  2.3772291882749167e-03  2.4083349168873606e-03  2.4398476598328283e-03 
 2.4717727428398813e-03  2.5041155613235331e-03  2.5368815812970851e-03  2.5700763402959001e-03 
 2.6037054483132554e-03  2.6377745887484465e-03  2.6722895193672948e-03  2.7072560732752261e-03 
 2.7426801599030699e-03  2.7785677660057814e-03  2.8149249566742081e-03  2.8517578763601090e-03 
 2.8890727499145718e-03  2.9268758836400429e-03  2.9651736663560968e-03  3.0039725704791649e-03 
 3.0432791531163897e-03  3.0831000571737892e-03  3.1234420124789282e-03  3.1643118369182703e-03 
 3.2057164375894195e-03  3.2476628119684366e-03  3.2901580490924307e-03  3.3332093307576137e-03 
 3.3768239327330550e-03  3.4210092259902960e-03  3.4657726779490617e-03  3.5111218537392753e-03 
 3.5570644174795808e-03  3.6036081335725973e-03  3.6507608680171242e-03  3.6985305897375130e-03 
 3.7469253719304243e-03  3.7959533934292375e-03  3.8456229400862761e-03  3.8959424061731441e-03 
 3.9469202957993750e-03  3.9985652243496473e-03  4.0508859199398081e-03  4.1038912248919385e-03 
 4.1575900972287373e-03  4.2119916121874318e-03  4.2671049637535326e-03  4.3229394662146299e-03 
 4.3795045557345324e-03  4.4368097919479984e-03  4.4948648595763401e-03  4.5536795700641623e-03 
 4.6132638632375243e-03  4.6736278089837919e-03  4.7347816089534601e-03  4.7967355982842796e-03 
 4.8595002473479035e-03  4.9230861635194099e-03  4.9875040929699731e-03  5.0527649224829897e-03 
 5.1188796812939759e-03  5.1858595429545287e-03  5.2537158272206938e-03  5.3224600019660066e-03 
 5.3921036851196204e-03  5.4626586466297476e-03  5.5341368104528128e-03  5.6065502565686241e-03 
 5.6799112230219283e-03  5.7542321079906613e-03  5.8295254718812731e-03  5.9058040394514731e-03 
 5.9830807019607204e-03  6.0613685193489095e-03  6.1406807224435121e-03  6.2210307151956221e-03 
 6.3024320769452550e-03  6.3848985647162893e-03  6.4684441155414369e-03  6.5530828488176342e-03 
 6.6388290686922591e-03  6.7256972664805417e-03  6.8137021231146691e-03  6.9028585116248748e-03 
 6.9931814996530145e-03  7.0846863519990451e-03  7.1773885332008028e-03  7.2713037101475491e-03 
 7.3664477547277177e-03  7.4628367465112994e-03  7.5604869754673093e-03  7.6594149447168618e-03 
 7.7596373733222219e-03  7.8611711991123604e-03  7.9640335815454981e-03  8.0682419046090841e-03 
 8.1738137797577482e-03  8.2807670488896576e-03  8.3891197873618636e-03  8.4988903070450424e-03 
 8.6100971594182934e-03  8.7227591387043519e-03  8.8368952850458610e-03  8.9525248877232073e-03 
 9.0696674884144547e-03  9.1883428844979319e-03  9.3085711323980316e-03  9.4303725509748155e-03 
 9.5537677249579057e-03  9.6787775084254037e-03  9.8054230283282535e-03  9.9337256880607464e-03 
 1.0063707171077749e-02  1.0195389444559260e-02  1.0328794763122916e-02  1.0463945672585070e-02 
 1.0600865013771103e-02  1.0739575926375538e-02  1.0880101852872760e-02  1.1022466542478813e-02 
 1.1166694055165082e-02  1.1312808765724484e-02  1.1460835367890875e-02  1.1610798878512334e-02 
 1.1762724641779089e-02  1.1916638333506736e-02  1.2072565965475488e-02  1.2230533889826280e-02 
 1.2390568803514307e-02  1.2552697752820880e-02  1.2716948137924313e-02  1.2883347717530625e-02 
 1.3051924613564811e-02  1.3222707315923534e-02  1.3395724687289981e-02  1.3571005968011690e-02 
 1.3748580781042302e-02  1.3928479136947860e-02  1.4110731438978692e-02  1.4295368488207612e-02 
 1.4482421488735405e-02  1.4671922052964356e-02  1.4863902206940852e-02  1.5058394395767860e-02 
 1.5255431489088176e-02  1.5455046786639549e-02  1.5657274023882371e-02  1.5862147377701051e-02 
 1.6069701472180016e-02  1.6279971384455218e-02  1.6492992650642302e-02  1.6708801271842263e-02 
 1.6927433720225742e-02  1.7148926945196853e-02  1.7373318379637813e-02  1.7600645946235106e-02 
 1.7830948063888553e-02  1.8064263654204181e-02  1.8300632148072059e-02  1.8540093492330240e-02 
 1.8782688156515841e-02  1.9028457139704524e-02  1.9277441977439368e-02  1.9529684748750577e-02 
 1.9785228083266864e-02  2.0044115168419981e-02  2.0306389756743492e-02  2.0572096173267069e-02 
 2.0841279323007503e-02  2.1113984698557787e-02  2.1390258387775474e-02  2.1670147081571559e-02 
 2.1953698081801476e-02  2.2240959309259144e-02  2.2531979311775707e-02  2.2826807272424254e-02 
 2.3125493017831851e-02  2.3428087026600371e-02  2.3734640437837500e-02  2.4045205059799388e-02 
 2.4359833378646271e-02  2.4678578567312905e-02  2.5001494494494826e-02  2.5328635733752287e-02 
 2.5660057572733354e-02  2.5995816022517632e-02  2.6335967827082273e-02  2.6680570472891844e-02 
 2.7029682198613698e-02  2.7383362004960349e-02  2.7741669664660889e-02  2.8104665732562616e-02 
 2.8472411555864968e-02  2.8844969284487359e-02  2.9222401881572640e-02  2.9604773134128053e-02 
 2.9992147663805358e-02  3.0384590937822087e-02  3.0782169280025546e-02  3.1184949882101864e-02 
 3.1593000814931459e-02  3.2006391040093181e-02  3.2425190421518979e-02  3.2849469737301108e-02 
 3.3279300691653753e-02  3.3714755927031242e-02  3.4155909036404815e-02  3.4602834575699876e-02 
 3.5055608076396322e-02  3.5514306058293421e-02  3.5979006042441850e-02  3.6449786564244975e-02 
 3.6926727186731470e-02  3.7409908514001708e-02  3.7899412204850005e-02  3.8395320986565236e-02 
 3.8897718668911736e-02  3.9406690158293609e-02  3.9922321472103978e-02  4.0444699753262113e-02 
 4.0973913284940849e-02  4.1510051505486624e-02  4.2053205023534754e-02  4.2603465633322561e-02 
 4.3160926330202812e-02  4.3725681326360004e-02  4.4297826066732701e-02  4.4877457245143797e-02 
 4.5464672820642003e-02  4.6059572034057222e-02  4.6662255424772432e-02  4.7272824847715104e-02 
 4.7891383490570941e-02  4.8518035891222860e-02  4.9152887955417966e-02  4.9796046974666164e-02 
 5.0447621644372498e-02  5.1107722082206944e-02  5.1776459846714605e-02  5.2453947956169346e-02 
 5.3140300907674146e-02  5.3835634696511404e-02  5.4540066835746435e-02  5.5253716376087302e-02 
 5.5976703926004914e-02  5.6709151672115987e-02  5.7451183399832920e-02  5.8202924514283792e-02 
 5.8964502061506184e-02  5.9736044749918185e-02  6.0517682972070476e-02  6.1309548826683047e-02 
 6.2111776140969931e-02  6.2924500493256680e-02  6.3747859235893184e-02  6.4581991518466622e-02 
 6.5427038311318061e-02  6.6283142429366809e-02  6.7150448556246412e-02  6.8029103268756580e-02 
 6.8919255061635071e-02  6.9821054372653416e-02  7.0734653608041598e-02  7.1660207168244866e-02 
 7.2597871474017778e-02  7.3547804992859761e-02  7.4510168265796442e-02  7.5485123934511442e-02 
 7.6472836768833277e-02  7.7473473694581851e-02  7.8487203821779122e-02  7.9514198473229394e-02 
 8.0554631213473143e-02  8.1608677878119762e-02  8.2676516603564343e-02  8.3758327857093043e-02 
 8.4854294467382491e-02  8.5964601655398376e-02  8.7089437065698161e-02  8.8228990798143253e-02 
 8.9383455440026779e-02  9.0553026098620940e-02  9.1737900434150726e-02  9.2938278693198956e-02 
 9.4154363742548430e-02  9.5386361103466891e-02  9.6634478986440592e-02  9.7898928326362517e-02 
 9.9179922818180416e-02  1.0047767895301243e-01  1.0179241605473406e-01  1.0312435631704475e-01 
 1.0447372484101898e-01  1.0584074967314890e-01  1.0722566184388480e-01  1.0862869540667977e-01 
 1.1005008747754537e-01  1.1149007827512444e-01  1.1294891116128918e-01  1.1442683268226950e-01 
 1.1592409261032006e-01  1.1744094398593233e-01  1.1897764316059900e-01  1.2053444984013814e-01 
 1.2211162712858389e-01  1.2370944157265200e-01  1.2532816320678619e-01  1.2696806559879550e-01 
 1.2862942589608728e-01  1.3031252487250594e-01  1.3201764697578453e-01  1.3374508037561678e-01 
 1.3549511701235870e-01  1.3726805264636724e-01  1.3906418690798433e-01  1.4088382334817501e-01 
 1.4272726948982867e-01  1.4459483687973079e-01  1.4648684114121530e-01  1.4840360202750552e-01 
 1.5034544347575332e-01  1.5231269366178521e-01  1.5430568505556491e-01  1.5632475447738159e-01 
 1.5837024315477283e-01  1.6044249678019376e-01  1.6254186556943917e-01  1.6466870432083119e-01 
 1.6682337247518092e-01  1.6900623417653465e-01  1.7121765833371544e-01  1.7345801868266922e-01 
 1.7572769384962722e-01  1.7802706741509472e-01  1.8035652797867702e-01  1.8271646922475371e-01 
 1.8510728998901257e-01  1.8752939432585253e-01  1.8998319157667162e-01  1.9246909643904558e-01 
 1.9498752903681277e-01  1.9753891499107640e-01  2.0012368549213524e-01  2.0274227737235595e-01 
 2.0539513317999886e-01  2.0808270125400946e-01  2.1080543579978891e-01  2.1356379696595593e-01 
 2.1635825092211264e-01  2.1918926993762877e-01  2.2205733246145604e-01  2.2496292320298719e-01 
 2.2790653321397322e-01  2.3088865997151195e-01  2.3390980746212367e-01  2.3697048626692405e-01 
 2.4007121364791617e-01  2.4321251363540758e-01  2.4639491711657260e-01  2.4961896192517413e-01 
 2.5288519293245826e-01  2.5619416213923918e-01  2.5954642876918854e-01  2.6294255936334554e-01 
 2.6638312787586360e-01  2.6986871577101035e-01  2.7339991212143600e-01  2.7697731370772843e-01 
 2.8060152511927028e-01  2.8427315885641607e-01  2.8799283543400622e-01  2.9176118348623553e-01 
 2.9557883987289435e-01  2.9944644978699742e-01  3.0336466686382602e-01  3.0733415329139180e-01 
 3.1135557992234891e-01  3.1542962638736927e-01  3.1955698121000209e-01  3.2373834192303597e-01 
 3.2797441518638337e-01  3.3226591690650820e-01  3.3661357235741518e-01  3.4101811630322343e-01 
 3.4548029312234307e-01  3.5000085693327687e-01  3.5458057172206836e-01  3.5922021147141681e-01 
 3.6392056029148290e-01  3.6868241255240430e-01  3.7350657301854762e-01  3.7839385698451211e-01 
 3.8334509041292109e-01  3.8836111007400814e-01  3.9344276368703474e-01  3.9859091006355629e-01 
 4.0380641925256350e-01  4.0909017268752274e-01  4.1444306333534031e-01  4.1986599584727624e-01 
 4.2535988671183195e-01  4.3092566440963970e-01  4.3656426957037742e-01  4.4227665513173775e-01 
 4.4806378650047651e-01  4.5392664171556907e-01  4.5986621161350094e-01  4.6588349999572143e-01 
 4.7197952379828989e-01  4.7815531326373628e-01  4.8441191211518025e-01  4.9075037773271885e-01 
 4.9717178133212769e-01  5.0367720814589867e-01  5.1026775760664667e-01  5.1694454353291674e-01 
 5.2370869431742206e-01  5.3056135311774422e-01  5.3750367804953081e-01  5.4453684238221844e-01 
 5.5166203473731901e-01  5.5888045928929919e-01  5.6619333596908883e-01  5.7360190067025218e-01 
 5.8110740545785677e-01  5.8871111878007565e-01  5.9641432568255870e-01  6.0421832802560504e-01 
 6.1212444470418570e-01  6.2013401187083672e-01  6.2824838316147280e-01  6.3646892992415527e-01 
 6.4479704145085237e-01  6.5323412521223412e-01  6.6178160709553713e-01  6.7044093164554341e-01 
 6.7921356230871222e-01  6.8810098168050504e-01  6.9710469175594891e-01  7.0622621418347609e-01 
 7.1546709052208701e-01  7.2482888250187705e-01  7.3431317228797277e-01  7.4392156274792143e-01 
 7.5365567772258113e-01  7.6351716230054811e-01  7.7350768309618867e-01  7.8362892853129540e-01 
 7.9388260912043673e-01  8.0427045776003681e-01  8.1479423002123974e-01  8.2545570444660554e-01 
 8.3625668285068711e-01  8.4719899062454229e-01  8.5828447704422861e-01  8.6951501558333533e-01 
 8.8089250422960552e-01  8.9241886580569996e-01  9.0409604829415868e-01  9.1592602516661548e-01 
 9.2791079571731760e-01  9.4005238540101366e-01  9.5235284617525973e-01  9.6481425684719968e-01 
 9.7743872342489801e-01  9.9022837947325382e-01  1.0031853864745801e+00  1.0163119341938986e+00 
 1.0296102410490169e+00  1.0430825544854443e+00  1.0567311513562170e+00  1.0705583383066917e+00 
 1.0845664521643721e+00  1.0987578603338417e+00  1.1131349611968575e+00  1.1277001845176848e+00 
 1.1424559918537309e+00  1.1574048769715559e+00  1.1725493662683248e+00  1.1878920191987743e+00 
 1.2034354287077680e+00  1.2191822216685040e+00  1.2351350593264736e+00  1.2512966377492105e+00 
 1.2676696882819340e+00  1.2842569780091535e+00  1.3010613102223128e+00  1.3180855248935510e+00 
 1.3353324991556674e+00  1.3528051477883616e+00  1.3705064237108391e+00  1.3884393184808617e+00 
 1.4066068628003277e+00  1.4250121270274669e+00  1.4436582216957408e+00  1.4625482980395275e+00 
 1.4816855485266891e+00  1.5010732073981068e+00  1.5207145512142768e+00  1.5406128994090471e+00 
 1.5607716148506254e+00  1.5811941044099007e+00  1.6018838195362164e+00  1.6228442568406720e+00 
 1.6440789586870603e+00  1.6655915137905335e+00  1.6873855578241064e+00  1.7094647740330919e+00 
 1.7318328938575811e+00  1.7544936975630616e+00  1.7774510148792952e+00  1.8007087256475489e+00 
 1.8242707604762978e+00  1.8481411014055085e+00  1.8723237825796109e+00  1.8968228909292808e+00 
 1.9216425668621437e+00  1.9467870049624978e+00  1.9722604547002320e+00  1.9980672211489812e+00 
 2.0242116657136977e+00  2.0506982068677395e+00  2.0775313208996025e+00  2.1047155426694224e+00 
 2.1322554663753808e+00  2.1601557463301302e+00  2.1884210977473892e+00  2.2170562975388215e+00 
 2.2460661851213461e+00  2.2754556632350118e+00  2.3052296987715684e+00  2.3353933236138866e+00 
 2.3659516354863581e+00  2.3969097988164201e+00  2.4282730456073640e+00  2.4600466763225359e+00 
 2.4922360607811553e+00  2.5248466390658098e+00  2.5578839224418455e+00  2.5913534942887853e+00 
 2.6252610110439316e+00  2.6596122031583200e+00  2.6944128760651762e+00  2.7296689111610504e+00 
 2.7653862667997875e+00  2.8015709792995001e+00  2.8382291639627244e+00  2.8753670161099185e+00 
 2.9129908121264867e+00  2.9511069105235039e+00  2.9897217530123199e+00  3.0288418655932223e+00 
 3.0684738596583516e+00  3.1086244331090223e+00  3.1493003714877155e+00  3.1905085491248295e+00 
 3.2322559303004654e+00  3.2745495704214029e+00  3.3173966172134870e+00  3.3608043119296043e+00 
 3.4047799905734779e+00  3.4493310851394634e+00  3.4944651248685794e+00  3.5401897375209637e+00 
 3.5865126506649823e+00  3.6334416929832107e+00  3.6809847955954966e+00  3.7291499933993371e+00 
 3.7779454264278001e+00  3.8273793412252055e+00  3.8774600922408178e+00  3.9281961432407413e+00 
 3.9795960687383607e+00  4.0316685554434191e+00  4.0844224037301098e+00  4.1378665291243504e+00 
 4.1920099638105359e+00  4.2468618581579944e+00  4.3024314822674246e+00  4.3587282275375596e+00 
 4.4157616082523443e+00  4.4735412631888636e+00  4.5320769572463231e+00  4.5913785830963381e+00 
 4.6514561628548217e+00  4.7123198497757439e+00  4.7739799299670542e+00  4.8364468241290641e+00 
 4.8997310893155710e+00  4.9638434207179980e+00  5.0287946534729544e+00  5.0945957644933646e+00 
 5.1612578743236046e+00  5.2287922490189001e+00  5.2972103020493098e+00  5.3665235962286388e+00 
 5.4367438456685759e+00  5.5078829177584074e+00  5.5799528351706345e+00  5.6529657778928328e+00 
 5.7269340852860999e+00  5.8018702581704380e+00  5.8777869609374189e+00  5.9546970236905015e+00 
 6.0326134444133412e+00  6.1115493911664904e+00  6.1915182043128372e+00  6.2725333987721132e+00 
 6.3546086663050190e+00  6.4377578778271127e+00  6.5219950857530460e+00  6.6073345263714511e+00 
 6.6937906222509085e+00  6.7813779846773956e+00  6.8701114161236294e+00  6.9600059127507166e+00 
 7.0510766669425466e+00  7.1433390698733348e+00  7.2368087141087685e+00  7.3315013962411921e+00 
 7.4274331195592627e+00  7.5246200967525478e+00  7.6230787526515105e+00  7.7228257270033325e+00 
 7.8238778772841062e+00  7.9262522815477139e+00  8.0299662413121489e+00  8.1350372844834631e+00 
 8.2414831683180303e+00  8.3493218824235704e+00  8.4585716517994349e+00  8.5692509399166710e+00 
 8.6813784518384001e+00  8.7949731373810103e+00  8.9100541943167251e+00  9.0266410716180694e+00 
 9.1447534727447959e+00  9.2644113589738151e+00  9.3856349527726959e+00  9.5084447412173141e+00 
 9.6328614794542169e+00  9.7589061942082900e+00  9.8866001873363416e+00  1.0015965039427101e+01 
 1.0147022613448488e+01  1.0279795058442446e+01  1.0414304813268185e+01  1.0550574610394420e+01 
 1.0688627479741202e+01  1.0828486752572024e+01  1.0970176065436878e+01  1.1113719364166872e+01 
 1.1259140907921138e+01  1.1406465273286686e+01  1.1555717358431910e+01  1.1706922387314435e+01 
 1.1860105913944023e+01  1.2015293826701267e+01  1.2172512352712786e+01  1.2331788062283671e+01 
 1.2493147873387951e+01  1.2656619056217712e+01  1.2822229237791953e+01  1.2990006406625529e+01 
 1.3159978917459293e+01  1.3332175496052130e+01  1.3506625244035670e+01  1.3683357643832526e+01 
 1.3862402563638904e+01  1.4043790262472394e+01  1.4227551395285824e+01  1.4413717018148006e+01 
 1.4602318593492294e+01  1.4793387995433815e+01  1.4986957515156258e+01  1.5183059866369172e+01 
 1.5381728190836650e+01  1.5582996063978385e+01  1.5786897500543997e+01  1.5993466960361516e+01 
 1.6202739354161334e+01  1.6414750049476094e+01  1.6629534876617907e+01  1.6847130134733771e+01 
 1.7067572597940206e+01  1.7290899521538165e+01  1.7517148648309281e+01  1.7746358214894464e+01 
 1.7978566958256017e+01  1.8213814122224242e+01  1.8452139464129765e+01  1.8693583261522598e+01 
 1.8938186318979170e+01  1.9185989974998360e+01  1.9437036108987840e+01  1.9691367148341765e+01 
 1.9949026075611155e+01  2.0210056435767900e+01  2.0474502343564176e+01  2.0742408490987813e+01 
 2.1013820154815367e+01  2.1288783204264007e+01  2.1567344108743534e+01  2.1849549945709803e+01 
 2.2135448408620938e+01  2.2425087814997639e+01  2.2718517114588956e+01  2.3015785897644903e+01 
 2.3316944403297349e+01  2.3622043528050536e+01  2.3931134834382714e+01  2.4244270559460318e+01 
 2.4561503623966182e+01  2.4882887641043247e+01  2.5208476925355377e+01  2.5538326502266457e+01 
 2.5872492117140109e+01  2.6211030244760593e+01  2.6553998098877230e+01  2.6901453641873662e+01 
 2.7253455594563633e+01  2.7610063446114943e+01  2.7971337464103264e+01  2.8337338704697515e+01 
 2.8708129022978465e+01  2.9083771083392424e+01  2.9464328370341669e+01  2.9849865198913442e+01 
 3.0240446725749411e+01  3.0636138960057213e+01  3.1037008774766242e+01  3.1443123917829286e+01 
 3.1854553023672178e+01  3.2271365624792928e+01  3.2693632163513250e+01  3.3121424003883206e+01 
 3.3554813443742020e+01  3.3993873726936513e+01  3.4438679055699581e+01  3.4889304603190439e+01 
 3.5345826526199161e+01  3.5808321978017304e+01  3.6276869121476992e+01  3.6751547142160675e+01 
 3.7232436261783612e+01  3.7719617751751599e+01  3.8213173946895964e+01  3.8713188259388417e+01 
 3.9219745192837827e+01  3.9732930356571686e+01  4.0252830480103960e+01  4.0779533427792998e+01 
 4.1313128213690575e+01  4.1853705016585494e+01  4.2401355195244093e+01  4.2956171303850013e+01 
 4.3518247107646125e+01  4.4087677598781070e+01  4.4664559012363142e+01  4.5248988842724280e+01 
 4.5841065859896808e+01  4.6440890126305831e+01  4.7048563013680010e+01  4.7664187220183628e+01 
 4.8287866787772842e+01  4.8919707119778977e+01  4.9559814998721990e+01  5.0208298604357033e+01 
 5.0865267531956725e+01  5.1530832810833587e+01  5.2205106923103834e+01  5.2888203822697299e+01 
 5.3580238954615844e+01  5.4281329274443863e+01  5.4991593268114080e+01  5.5711150971931922e+01 
 5.6440123992861949e+01  5.7178635529079727e+01  5.7926810390792603e+01  5.8684775021332925e+01 
 5.9452657518527303e+01  6.0230587656345392e+01  6.1018696906832034e+01  6.1817118462326313e+01 
 6.2625987257971460e+01  6.3445439994519219e+01  6.4275615161432228e+01  6.5116653060289693e+01 
 6.5968695828498284e+01  6.6831887463313791e+01  6.7706373846176930e+01  6.8592302767367798e+01 
 6.9489823950982668e+01  7.0399089080237758e+01  7.1320251823104059e+01  7.2253467858277560e+01 
 7.3198894901489339e+01  7.4156692732159939e+01  7.5127023220402364e+01  7.6110050354378615e+01 
 7.7105940268014052e+01  7.8114861269074382e+01  7.9136983867610098e+01  8.0172480804773272e+01 
 8.1221527082010567e+01  8.2284299990639823e+01  8.3360979141812066e+01  8.4451746496866491e+01 
 8.5556786398082210e+01  8.6676285599832639e+01  8.7810433300147366e+01  8.8959421172687172e+01 
 9.0123443399137159e+01  9.1302696702024122e+01  9.2497380377962997e+01  9.3707696331338440e+01 
 9.4933849108427268e+01  9.6176045931967167e+01  9.7434496736177863e+01  9.8709414202240495e+01 
 1.0000101379424127e+02  1.0130951379558553e+02  1.0263513534588751e+02  1.0397810247834450e+02 
 1.0533864215759827e+02  1.0671698431809284e+02  1.0811336190293392e+02  1.0952801090325684e+02 
 1.1096117039810967e+02  1.1241308259485811e+02  1.1388399287011907e+02  1.1537414981123004e+02 
 1.1688380525826071e+02  1.1841321434657482e+02 
  </PP_R>
  <PP_RAB>
 7.6024461193534501e-07  7.7019231184352846e-07  7.8027017608554566e-07  7.9047990784444002e-07 
 8.0082323258917856e-07  8.1130189836626157e-07  8.2191767609514539e-07  8.3267235986753282e-07 
 8.4356776725057863e-07  8.5460573959406423e-07  8.6578814234158415e-07  8.7711686534581858e-07 
 8.8859382318792007e-07  9.0022095550107957e-07  9.1200022729833262e-07  9.2393362930464702e-07 
 9.3602317829336534e-07  9.4827091742704082e-07  9.6067891660273820e-07  9.7324927280184995e-07 
 9.8598411044449274e-07  9.9888558174853824e-07  1.0119558670933436e-06  1.0251971753882415e-06 
 1.0386117444458476e-06  1.0522018413602612e-06  1.0659697628902073e-06  1.0799178358471926e-06 
 1.0940484174887452e-06  1.1083638959167946e-06  1.1228666904812671e-06  1.1375592521889622e-06 
 1.1524440641177792e-06  1.1675236418363598e-06  1.1828005338292296e-06  1.1982773219274964e-06 
 1.2139566217451851e-06  1.2298410831212827e-06  1.2459333905675686e-06  1.2622362637223024e-06 
 1.2787524578098496e-06  1.2954847641063227e-06  1.3124360104113074e-06  1.3296090615257763e-06 
 1.3470068197362413e-06  1.3646322253052482e-06  1.3824882569682883e-06  1.4005779324372121e-06 