  <PP_INFO>

############################################################
#    Opium Parameter File                                  #
############################################################
#-----------------------------------------------------------
#Command line   : opium al_srl_gga log all rpt upf 
 
#Opium version  : 3.6 
#Compile Host   : whoville2.chem.upenn.edu 
#Compile OS     : Linux 2.6.18-92.1.13.el5 x86_64 
#Compile Date   : Wed Jan 19 10:47:14 EST 2011 
#-----------------------------------------------------------
#Execution Host : whoville2.chem.upenn.edu 
#Execution Date : Sat Aug 27 16:57:10 2011
 
#-----------------------------------------------------------
############################################################
   [Atom]
    Al
    6
       100 2.00  -   # reference configuration
       200 2.00  -   # reference configuration
       210 6.00  -   # reference configuration
       300 2.00  -   # reference configuration
       310 0.50  -   # reference configuration
       320 0.00  -   # reference configuration
      

[Pseudo]
3 1.85 1.85 1.97
opt

[Optinfo]
7.07 10    # rc[a.u.] qc[sqrt(Ry)] Nb
7.07 10
7.07 10

[Relativity]
srl

[XC]
gga
-0.05

  [Configs]
  3                 # number of valence configurations
  #
  300  1.00  -13.0   # nlm occ eigen(- means auto-generate)
  310  0.00   -6.0 
  320  0.00  - 
  #
  300  1.00  -13.0 
  310  1.00   -6.0 
  320  0.00  -   
  #
  300  2.00  -13.0 
  310  0.00   -6.0 
  320  0.00  -  


[KBdesign]
s    # local orbital
############################################################
  </PP_INFO>



<PP_HEADER>
   0         Version Number
   Al        Element
   NC        Norm - Conserving pseudopotential
    F      Nonlinear Core Correction
SLA  PW   PBE  PBE     PBE  Exchange-Correlation functional
 3          Z valence
 0          Total energy
 0.000000   0.000000     Suggested cutoff for wfc and rho
 2           Max angular momentum component
 1142           Number of points in mesh
 3  2     Number of Wavefuncitons, Number of Projectors
 Wavefunctions         nl  l   occ
                       S  0  2.000000
                       P  1  0.500000
                       D  2  0.000000
</PP_HEADER>
<PP_MESH>
  <PP_R>
 4.2529037028299032e-05  4.3085523836754727e-05  4.3649292201286559e-05  4.4220437400089937e-05 
 4.4799055958062852e-05  4.5385245663118815e-05  4.5979105582713072e-05  4.6580736080585527e-05 
 4.7190238833722263e-05  4.7807716849539233e-05  4.8433274483290760e-05  4.9067017455705843e-05 
 4.9709052870855190e-05  5.0359489234252058e-05  5.1018436471190027e-05  5.1686005945320387e-05 
 5.2362310477473217e-05  5.3047464364724098e-05  5.3741583399710715e-05  5.4444784890202036e-05 
 5.5157187678923672e-05  5.5878912163642480e-05  5.6610080317514163e-05  5.7350815709697025e-05 
 5.8101243526235261e-05  5.8861490591216012e-05  5.9631685388202727e-05  6.0411958081949220e-05 
 6.1202440540397877e-05  6.2003266356965586e-05  6.2814570873121384e-05  6.3636491201259502e-05 
 6.4469166247871693e-05  6.5312736737022586e-05  6.6167345234132642e-05  6.7033136170071956e-05 
 6.7910255865569379e-05  6.8798852555941034e-05  6.9699076416142604e-05  7.0611079586149024e-05 
 7.1535016196666755e-05  7.2471042395181933e-05  7.3419316372349985e-05  7.4379998388730047e-05 
 7.5353250801869380e-05  7.6339238093742274e-05  7.7338126898547792e-05  7.8350086030871345e-05 
 7.9375286514214933e-05  8.0413901609900282e-05  8.1466106846350651e-05  8.2532080048755156e-05 
 8.3612001369122262e-05  8.4706053316725409e-05  8.5814420788947674e-05  8.6937291102529897e-05 
 8.8074854025227596e-05  8.9227301807882252e-05  9.0394829216912137e-05  9.1577633567228013e-05 
 9.2775914755580398e-05  9.3989875294342117e-05  9.5219720345733567e-05  9.6465657756495611e-05 
 9.7727898093016087e-05  9.9006654676916134e-05  1.0030214362110199e-04  1.0161458386628864e-04 
 1.0294419721800131e-04  1.0429120838406088e-04  1.0565584501256057e-04  1.0703833773033842e-04 
 1.0843892018195436e-04  1.0985782906917613e-04  1.1129530419098289e-04  1.1275158848409151e-04 
 1.1422692806401373e-04  1.1572157226664977e-04  1.1723577369042745e-04  1.1876978823899128e-04 
 1.2032387516445111e-04  1.2189829711119618e-04  1.2349332016028277e-04  1.2510921387440249e-04 
 1.2674625134343902e-04  1.2840470923062097e-04  1.3008486781927850e-04  1.3178701106021214e-04 
 1.3351142661968072e-04  1.3525840592801811e-04  1.3702824422888546e-04  1.3882124062916792e-04 
 1.4063769814952475e-04  1.4247792377560013e-04  1.4434222850990498e-04  1.4623092742437630e-04 
 1.4814433971362614e-04  1.5008278874888544e-04  1.5204660213265485e-04  1.5403611175407027e-04 
 1.5605165384499303e-04  1.5809356903683362e-04  1.6016220241811942e-04  1.6225790359281541e-04 
 1.6438102673940806e-04  1.6653193067076258e-04  1.6871097889476242e-04  1.7091853967574395e-04 
 1.7315498609673331e-04  1.7542069612249864e-04  1.7771605266342691e-04  1.8004144364023670e-04 
 1.8239726204953788e-04  1.8478390603024841e-04  1.8720177893088161e-04  1.8965128937771254e-04 
 1.9213285134383665e-04  1.9464688421913268e-04  1.9719381288114013e-04  1.9977406776686488e-04 
 2.0238808494552380e-04  2.0503630619224175e-04  2.0771917906271245e-04  2.1043715696883670e-04 
 2.1319069925534922e-04  2.1598027127745035e-04  2.1880634447945138e-04  2.2166939647444973e-04 
 2.2456991112504681e-04  2.2750837862512221e-04  2.3048529558267728e-04  2.3350116510376299e-04 
 2.3655649687750663e-04  2.3965180726224987e-04  2.4278761937281495e-04  2.4596446316891202e-04 
 2.4918287554470388e-04  2.5244340041954212e-04  2.5574658882989099e-04  2.5909299902245384e-04 
 2.6248319654851774e-04  2.6591775435953399e-04  2.6939725290394675e-04  2.7292228022529191e-04 
 2.7649343206157645e-04  2.8011131194596059e-04  2.8377653130875552e-04  2.8748970958075731e-04 
 2.9125147429793184e-04  2.9506246120746904e-04  2.9892331437522760e-04  3.0283468629458196e-04 
 3.0679723799669596e-04  3.1081163916223852e-04  3.1487856823456123e-04  3.1899871253435706e-04 
 3.2317276837581901e-04  3.2740144118431890e-04  3.3168544561562602e-04  3.3602550567668563e-04 
 3.4042235484797815e-04  3.4487673620747778e-04  3.4938940255623653e-04  3.5396111654560771e-04 
 3.5859265080613725e-04  3.6328478807813792e-04  3.6803832134397671e-04  3.7285405396208940e-04 
 3.7773279980275049e-04  3.8267538338561873e-04  3.8768264001908366e-04  3.9275541594143397e-04 
 3.9789456846387421e-04  4.0310096611541243e-04  4.0837548878964352e-04  4.1371902789345328e-04 
 4.1913248649766823e-04  4.2461677948967718e-04  4.3017283372804926e-04  4.3580158819917392e-04 
 4.4150399417595433e-04  4.4728101537857255e-04  4.5313362813736237e-04  4.5906282155780870e-04 
 4.6506959768771234e-04  4.7115497168653586e-04  4.7731997199696878e-04  4.8356564051873683e-04 
 4.8989303278468570e-04  4.9630321813916788e-04  5.0279727991876517e-04  5.0937631563537501e-04 
 5.1604143716169222e-04  5.2279377091911817e-04  5.2963445806812918e-04  5.3656465470113500e-04 
 5.4358553203786165e-04  5.5069827662328837e-04  5.5790409052817937e-04  5.6520419155223569e-04 
 5.7259981342990527e-04  5.8009220603888684e-04  5.8768263561136483e-04  5.9537238494800256e-04 
 6.0316275363474041e-04  6.1105505826242808e-04  6.1905063264933223e-04  6.2715082806655460e-04 
 6.3535701346640011e-04  6.4367057571373238e-04  6.5209291982035850e-04  6.6062546918247832e-04 
 6.6926966582124266e-04  6.7802697062645744e-04  6.8689886360347825e-04  6.9588684412333346e-04 
 7.0499243117612344e-04  7.1421716362773241e-04  7.2356260047990091e-04  7.3303032113369903e-04 
 7.4262192565645150e-04  7.5233903505215224e-04  7.6218329153541630e-04  7.7215635880902012e-04 
 7.8225992234506902e-04  7.9249568966984895e-04  8.0286539065239926e-04  8.1337077779686717e-04 
 8.2401362653868385e-04  8.3479573554461799e-04  8.4571892701675359e-04  8.5678504700044769e-04 
 8.6799596569631717e-04  8.7935357777630264e-04  8.9085980270387931e-04  9.0251658505844518e-04 
 9.1432589486396354e-04  9.2628972792189719e-04  9.3841010614850891e-04  9.5068907791656654e-04 
 9.6312871840152387e-04  9.7573112993223085e-04  9.8849844234623059e-04  1.0014328133497090e-03 
 1.0145364288821500e-03  1.0278115034857674e-03  1.0412602806797646e-03  1.0548850333394969e-03 
 1.0686880640805921e-03  1.0826717056480978e-03  1.0968383213107223e-03  1.1111903052602287e-03 
 1.1257300830160644e-03  1.1404601118352763e-03  1.1553828811277952e-03  1.1705009128771464e-03 
 1.1858167620666794e-03  1.2013330171113600e-03  1.2170523002952213e-03  1.2329772682145349e-03 
 1.2491106122267817e-03  1.2654550589054992e-03  1.2820133705010771e-03  1.2987883454075853e-03 
 1.3157828186357093e-03  1.3329996622918733e-03  1.3504417860636328e-03  1.3681121377114190e-03 
 1.3860137035667192e-03  1.4041495090367671e-03  1.4225226191158544e-03  1.4411361389033135e-03 
 1.4599932141282914e-03  1.4790970316813810e-03  1.4984508201532193e-03  1.5180578503801215e-03 
 1.5379214359968623e-03  1.5580449339966892e-03  1.5784317452986580e-03  1.5990853153224033e-03 
 1.6200091345704151e-03  1.6412067392179487e-03  1.6626817117106406e-03  1.6844376813699542e-03 
 1.7064783250065447e-03  1.7288073675416442e-03  1.7514285826365880e-03  1.7743457933305660e-03 
 1.7975628726867314e-03  1.8210837444467554e-03  1.8449123836939462e-03  1.8690528175250504e-03 
 1.8935091257308435e-03  1.9182854414856196e-03  1.9433859520457115e-03  1.9688148994571469e-03 
 1.9945765812725592e-03  2.0206753512774923e-03  2.0471156202261937e-03  2.0739018565870478e-03 
 2.1010385872977507e-03  2.1285303985303823e-03  2.1563819364664744e-03  2.1845979080822261e-03 
 2.2131830819439990e-03  2.2421422890142101e-03  2.2714804234677797e-03  2.3012024435192587e-03 
 2.3313133722607762e-03  2.3618182985109580e-03  2.3927223776749459e-03  2.4240308326156693e-03 
 2.4557489545365329e-03  2.4878821038756332e-03  2.5204357112116882e-03  2.5534152781818194e-03 
 2.5868263784113391e-03  2.6206746584557061e-03  2.6549658387548113e-03  2.6897057145997454e-03 
 2.7249001571122032e-03  2.7605551142367390e-03  2.7966766117459695e-03  2.8332707542589462e-03 
 2.8703437262728500e-03  2.9079017932081910e-03  2.9459513024676707e-03  2.9844986845089174e-03 
 3.0235504539312440e-03  3.0631132105766244e-03  3.1031936406450984e-03  3.1437985178247425e-03 
 3.1849347044364431e-03  3.2266091525936470e-03  3.2688289053772811e-03  3.3116010980260521e-03 
 3.3549329591423213e-03  3.3988318119137538e-03  3.4433050753509440e-03  3.4883602655412693e-03 
 3.5340049969191040e-03  3.5802469835526933e-03  3.6270940404478369e-03  3.6745540848686508e-03 
 3.7226351376756016e-03  3.7713453246810513e-03  3.8206928780225424e-03  3.8706861375540341e-03 
 3.9213335522553811e-03  3.9726436816602114e-03  4.0246251973025185e-03  4.0772868841821679e-03 
 4.1306376422495803e-03  4.1846864879098496e-03  4.2394425555465362e-03  4.2949150990653964e-03 
 4.3511134934583074e-03  4.4080472363876846e-03  4.4657259497915911e-03  4.5241593815098713e-03 
 4.5833574069315637e-03  4.6433300306638614e-03  4.7040873882229165e-03  4.7656397477467641e-03 
 4.8279975117306688e-03  4.8911712187851520e-03  4.9551715454170713e-03  5.0200093078339534e-03 
 5.0856954637719682e-03  5.1522411143478065e-03  5.2196575059348027e-03  5.2879560320635904e-03 
 5.3571482353476458e-03  5.4272458094340092e-03  5.4982606009795340e-03  5.5702046116530152e-03 
 5.6430900001634915e-03  5.7169290843150956e-03  5.7917343430887941e-03  5.8675184187513612e-03 
 5.9442941189919579e-03  6.0220744190866617e-03  6.1008724640913151e-03  6.1807015710630599e-03 
 6.2615752313109844e-03  6.3435071126761548e-03  6.4265110618415278e-03  6.5106011066720700e-03 
 6.5957914585854987e-03  6.6820965149540518e-03  6.7695308615376695e-03  6.8581092749490291e-03 
 6.9478467251508132e-03  7.0387583779856957e-03  7.1308595977393838e-03  7.2241659497372249e-03 
 7.3186932029747857e-03  7.4144573327828457e-03  7.5114745235272734e-03  7.6097611713442127e-03 
 7.7093338869110841e-03  7.8102094982537970e-03  7.9124050535907698e-03  8.0159378242140849e-03 
 8.1208253074084042e-03  8.2270852294080259e-03  8.3347355483926727e-03  8.4437944575224758e-03 
 8.5542803880126472e-03  8.6662120122484154e-03  8.7796082469406723e-03  8.8944882563229757e-03 
 9.0108714553903419e-03  9.1287775131804142e-03  9.2482263560975872e-03  9.3692381712806149e-03 
 9.4918334100142811e-03  9.6160327911857229e-03  9.7418573047859704e-03  9.8693282154572824e-03 
 9.9984670660869610e-03  1.0129295681448129e-02  1.0261836171888165e-02  1.0396110937065413e-02 
 1.0532142669734771e-02  1.0669954359582836e-02  1.0809569297113195e-02  1.0951011077582593e-02 
 1.1094303604988561e-02  1.1239471096109290e-02  1.1386538084596288e-02  1.1535529425120643e-02 
 1.1686470297573522e-02  1.1839386211321622e-02  1.1994303009518316e-02  1.2151246873471220e-02 
 1.2310244327066898e-02  1.2471322241253411e-02  1.2634507838581648e-02  1.2799828697805956e-02 
 1.2967312758545024e-02  1.3136988326003744e-02  1.3308884075756866e-02  1.3483029058595221e-02 
 1.3659452705435390e-02  1.3838184832293607e-02  1.4019255645324691e-02  1.4202695745927018e-02 
 1.4388536135914197e-02  1.4576808222754457e-02  1.4767543824878569e-02  1.4960775177057276e-02 
 1.5156534935848997e-02  1.5354856185118891e-02  1.5555772441630126e-02  1.5759317660708230e-02 
 1.5965526241979694e-02  1.6174433035185551e-02  1.6386073346071069e-02  1.6600482942352512e-02 
 1.6817698059761962e-02  1.7037755408171269e-02  1.7260692177796057e-02  1.7486546045481027e-02 
 1.7715355181067340e-02  1.7947158253843513e-02  1.8181994439080560e-02  1.8419903424652714e-02 
 1.8660925417744785e-02  1.8905101151647265e-02  1.9152471892640348e-02  1.9403079446968011e-02 
 1.9656966167903446e-02  1.9914174962906712e-02  2.0174749300876378e-02  2.0438733219495749e-02 
 2.0706171332675376e-02  2.0977108838092912e-02  2.1251591524831637e-02  2.1529665781118899e-02 
 2.1811378602165862e-02  2.2096777598109796e-02  2.2385911002060263e-02  2.2678827678250715e-02 
 2.2975577130296590e-02  2.3276209509561586e-02  2.3580775623633324e-02  2.3889326944909979e-02 
 2.4201915619299245e-02  2.4518594475031068e-02  2.4839417031585816e-02  2.5164437508739104e-02 
 2.5493710835725155e-02  2.5827292660519943e-02  2.6165239359245820e-02  2.6507608045699207e-02 
 2.6854456581002991e-02  2.7205843583385160e-02  2.7561828438085471e-02  2.7922471307391658e-02 
 2.8287833140806948e-02  2.8657975685350820e-02  2.9032961495994269e-02  2.9412853946231797e-02 
 2.9797717238791675e-02  3.0187616416486360e-02  3.0582617373204883e-02  3.0982786865049058e-02 
 3.1388192521615489e-02  3.1798902857424975e-02  3.2214987283501834e-02  3.2636516119104390e-02 
 3.3063560603609141e-02  3.3496192908550375e-02  3.3934486149817339e-02  3.4378514400010968e-02 
 3.4828352700962406e-02  3.5284077076415170e-02  3.5745764544873347e-02  3.6213493132617978e-02 
 3.6687341886893640e-02  3.7167390889267612e-02  3.7653721269163845e-02  3.8146415217574087e-02 
 3.8645556000948246e-02  3.9151227975266718e-02  3.9663516600296773e-02  4.0182508454035232e-02 
 4.0708291247340697e-02  4.1240953838756624e-02  4.1780586249528753e-02  4.2327279678818913e-02 
 4.2881126519117789e-02  4.3442220371859637e-02  4.4010656063241019e-02  4.4586529660246746e-02 
 4.5169938486885261e-02  4.5760981140636897e-02  4.6359757509116847e-02  4.6966368786956557e-02 
 4.7580917492905758e-02  4.8203507487158452e-02  4.8834243988905485e-02  4.9473233594116858e-02 
 5.0120584293556779e-02  5.0776405491034099e-02  5.1440808021892152e-02  5.2113904171740007e-02 
 5.2795807695429020e-02  5.3486633836277719e-02  5.4186499345548082e-02  5.4895522502176962e-02 
 5.5613823132765347e-02  5.6341522631829524e-02  5.7078743982316688e-02  5.7825611776389813e-02 
 5.8582252236483681e-02  5.9348793236636950e-02  6.0125364324103078e-02  6.0912096741244155e-02 
 6.1709123447711192e-02  6.2516579142914586e-02  6.3334600288788664e-02  6.4163325132853999e-02 
 6.5002893731581690e-02  6.5853447974063214e-02  6.6715131605989908e-02  6.7588090253946492e-02 
 6.8472471450022193e-02  6.9368424656744046e-02  7.0276101292336440e-02  7.1195654756311233e-02 
 7.2127240455392330e-02  7.3071015829780178e-02  7.4027140379759368e-02  7.4995775692654476e-02 
 7.5977085470138858e-02  7.6971235555900491e-02  7.7978393963670081e-02  7.8998730905615641e-02 
 8.0032418821108939e-02  8.1079632405867824e-02  8.2140548641480710e-02  8.3215346825316436e-02 
 8.4304208600826200e-02  8.5407317988241666e-02  8.6524861415674850e-02  8.7657027750624811e-02 
 8.8804008331896833e-02  8.9965997001939163e-02  9.1143190139602509e-02  9.2335786693329064e-02 
 9.3543988214774929e-02  9.4767998892872768e-02  9.6008025588340568e-02  9.7264277868641141e-02 
 9.8536968043399925e-02  9.9826311200285567e-02  1.0113252524136042e-01  1.0245583091990615e-01 
 1.0379645187773213e-01  1.0515461468297106e-01  1.0653054886836959e-01  1.0792448697007986e-01 
 1.0933666456695881e-01  1.1076732032038139e-01  1.1221669601457505e-01  1.1368503659748189e-01 
 1.1517259022215497e-01  1.1667960828869753e-01  1.1820634548674959e-01  1.1975305983853146e-01 
 1.2132001274244993e-01  1.2290746901727526e-01  1.2451569694689614e-01  1.2614496832566044e-01 
 1.2779555850430901e-01  1.2946774643651063e-01  1.3116181472600574e-01  1.3287804967436739e-01 
 1.3461674132938686e-01  1.3637818353409162e-01  1.3816267397640691e-01  1.3997051423946472e-01 
 1.4180200985257235e-01  1.4365747034284765e-01  1.4553720928752950e-01  1.4744154436697363e-01 
 1.4937079741834081e-01  1.5132529448998872e-01  1.5330536589657429e-01  1.5531134627487797e-01 
 1.5734357464035809e-01  1.5940239444444540e-01  1.6148815363258695e-01  1.6360120470304981e-01 
 1.6574190476649417e-01  1.6791061560632589e-01  1.7010770373983880e-01  1.7233354048015628e-01 
 1.7458850199898543e-01  1.7687296939018993e-01  1.7918732873419607e-01  1.8153197116324155e-01 
 1.8390729292747729e-01  1.8631369546193488e-01  1.8875158545437015e-01  1.9122137491399421e-01 
 1.9372348124110417e-01  1.9625832729762449e-01  1.9882634147857189e-01  2.0142795778445513e-01 
 2.0406361589462194e-01  2.0673376124156603e-01  2.0943884508620639e-01  2.1217932459415101e-01 
 2.1495566291295973e-01  2.1776832925041564e-01  2.2061779895382458e-01  2.2350455359034840e-01 
 2.2642908102839140e-01  2.2939187552005139e-01  2.3239343778464908e-01  2.3543427509335124e-01 
 2.3851490135490050e-01  2.4163583720246737e-01  2.4479761008163806e-01  2.4800075433955457e-01 
 2.5124581131522022e-01  2.5453332943098750e-01  2.5786386428524249e-01  2.6123797874630272e-01 
 2.6465624304754271e-01  2.6811923488376521e-01  2.7162753950883323e-01  2.7518174983457760e-01 
 2.7878246653100325e-01  2.8243029812780185e-01  2.8612586111719546e-01  2.8986978005812508e-01 
 2.9366268768180270e-01  2.9750522499864407e-01  3.0139804140660148e-01  3.0534179480091306e-01 
 3.0933715168528908e-01  3.1338478728455227e-01  3.1748538565875256e-01  3.2163963981877514e-01 
 3.2584825184346067e-01  3.3011193299825792e-01  3.3443140385543035e-01  3.3880739441583335e-01 
 3.4324064423228762e-01  3.4773190253456254e-01  3.5228192835600136e-01  3.5689149066179737e-01 
 3.6156136847895148e-01  3.6629235102792967e-01  3.7108523785604280e-01  3.7594083897257236e-01 
 3.8085997498566371e-01  3.8584347724101142e-01  3.9089218796235758e-01  3.9600696039383049e-01 
 4.0118865894414485e-01  4.0643815933268868e-01  4.1175634873752187e-01  4.1714412594531158e-01 
 4.2260240150322953e-01  4.2813209787283607e-01  4.3373414958597972e-01  4.3940950340273177e-01 
 4.4515911847139616e-01  4.5098396649060385e-01  4.5688503187353402e-01  4.6286331191428132e-01 
 4.6891981695640167e-01  4.7505557056366199e-01  4.8127160969302590e-01  4.8756898486990108e-01 
 4.9394876036568047e-01  5.0041201437760752e-01  5.0695983921099330e-01  5.1359334146381930e-01 
 5.2031364221375442e-01  5.2712187720762060e-01  5.3401919705333589e-01  5.4100676741437048e-01 
 5.4808576920674756e-01  5.5525739879861691e-01  5.6252286821244935e-01  5.6988340532986848e-01 
 5.7734025409916623e-01  5.8489467474553214e-01  5.9254794398403621e-01  6.0030135523539485e-01 
 6.0815621884456361e-01  6.1611386230218779e-01  6.2417563046895164e-01  6.3234288580286302e-01 
 6.4061700858951220e-01  6.4899939717534383e-01  6.5749146820397941e-01  6.6609465685563451e-01 
 6.7481041708966782e-01  6.8364022189030349e-01  6.9258556351556977e-01  7.0164795374948974e-01 
 7.1082892415758314e-01  7.2013002634570100e-01  7.2955283222225020e-01  7.3909893426385131e-01 
 7.4876994578447031e-01  7.5856750120807148e-01  7.6849325634484067e-01  7.7854888867102079e-01 
 7.8873609761240782e-01  7.9905660483155971e-01  8.0951215451876002e-01  8.2010451368679105e-01 
 8.3083547246956335e-01  8.4170684442465205e-01  8.5272046683979219e-01  8.6387820104338531e-01 
 8.7518193271906997e-01  8.8663357222440031e-01  8.9823505491371036e-01  9.0998834146518703e-01 
 9.2189541821223153e-01  9.3395829747915449e-01  9.4617901792126213e-01  9.5855964486939615e-01 
 9.7110227067897814e-01  9.8380901508362184e-01  9.9668202555337537e-01  1.0097234776576474e+00 
 1.0229355754328824e+00  1.0363205517550518e+00  1.0498806687170108e+00  1.0636182180108005e+00 
 1.0775355213149482e+00  1.0916349306868371e+00  1.1059188289602107e+00  1.1203896301478702e+00 
 1.1350497798496606e+00  1.1499017556657740e+00  1.1649480676154724e+00  1.1801912585612866e+00 
 1.1956339046387672e+00  1.2112786156918560e+00  1.2271280357139571e+00  1.2431848432947772e+00 
 1.2594517520730144e+00  1.2759315111949689e+00  1.2926269057791560e+00  1.3095407573869966e+00 
 1.3266759244996693e+00  1.3440353030011996e+00  1.3616218266678710e+00  1.3794384676640410e+00 
 1.3974882370444455e+00  1.4157741852630656e+00  1.4342994026886744e+00  1.4530670201271090e+00 
 1.4720802093503853e+00  1.4913421836327354e+00  1.5108561982936577e+00  1.5306255512480753e+00 
 1.5506535835636912e+00  1.5709436800256344e+00  1.5914992697085002e+00  1.6123238265558690e+00 
 1.6334208699674124e+00  1.6547939653936796e+00  1.6764467249386685e+00  1.6983828079702774e+00 
 1.7206059217387486e+00  1.7431198220032020e+00  1.7659283136663713e+00  1.7890352514176269e+00 
 1.8124445403844491e+00  1.8361601367923899e+00  1.8601860486336872e+00  1.8845263363446263e+00 
 1.9091851134917623e+00  1.9341665474671241e+00  1.9594748601925114e+00  1.9851143288330111e+00 
 2.0110892865198475e+00  2.0374041230826920e+00  2.0640632857915575e+00  2.0910712801083915e+00 
 2.1184326704485157e+00  2.1461520809520214e+00  2.1742341962652563e+00  2.2026837623325481e+00 
 2.2315055871982787e+00  2.2607045418194409e+00  2.2902855608888668e+00  2.3202536436691830e+00 
 2.3506138548377082e+00  2.3813713253423887e+00  2.4125312532689467e+00  2.4440989047193651e+00 
 2.4760796147018729e+00  2.5084787880325732e+00  2.5413019002488744e+00  2.5745544985348614e+00 
 2.6082422026587904e+00  2.6423707059228363e+00  2.6769457761252817e+00  2.7119732565352823e+00 
 2.7474590668803955e+00  2.7834092043470298e+00  2.8198297445939882e+00  2.8567268427792447e+00 
 2.8941067346002169e+00  2.9319757373475905e+00  2.9703402509729626e+00  3.0092067591704459e+00 
 3.0485818304724317e+00  3.0884721193596878e+00  3.1288843673859779e+00  3.1698254043174034e+00 
 3.2113021492866496e+00  3.2533216119623347e+00  3.2958908937336626e+00  3.3390171889105700e+00 
 3.3827077859395871e+00  3.4269700686356002e+00  3.4718115174297330e+00  3.5172397106335582e+00 
 3.5632623257198577e+00  3.6098871406201072e+00  3.6571220350390017e+00  3.7049749917861217e+00 
 3.7534540981250535e+00  3.8025675471401503e+00  3.8523236391211935e+00  3.9027307829661524e+00 
 3.9537974976023071e+00  4.0055324134259784e+00  4.0579442737610742e+00  4.1110419363367336e+00 
 4.1648343747843120e+00  4.2193306801539388e+00  4.2745400624509253e+00  4.3304718521922858e+00 
 4.3871355019836091e+00  4.4445405881165740e+00  4.5026968121873745e+00  4.5616140027362819e+00 
 4.6213021169087334e+00  4.6817712421380895e+00  4.7430315978504343e+00  4.8050935371916905e+00 
 4.8679675487773197e+00  4.9316642584649255e+00  4.9961944311500508e+00  5.0615689725854658e+00 
 5.1277989312242713e+00  5.1948955000871120e+00  5.2628700186538193e+00  5.3317339747798211e+00 
 5.4014990066376027e+00  5.4721769046835966e+00  5.5437796136507922e+00  5.6163192345674267e+00 
 5.6898080268020959e+00  5.7642584101355769e+00  5.8396829668598649e+00  5.9160944439045613e+00 
 5.9935057549911575e+00  6.0719299828154680e+00  6.1513803812586572e+00  6.2318703776271587e+00 
 6.3134135749219329e+00  6.3960237541374036e+00  6.4797148765904797e+00  6.5645010862800470e+00 
 6.6503967122773435e+00  6.7374162711476036e+00  6.8255744694033904e+00  6.9148862059900331e+00 
 7.0053665748035847e+00  7.0970308672417293e+00  7.1898945747880711e+00  7.2839733916301839e+00 
 7.3792832173120422e+00  7.4758401594210362e+00  7.5736605363101939e+00  7.6727608798560336e+00 
 7.7731579382524822e+00  7.8748686788413629e+00  7.9779102909799171e+00  8.0823001889458439e+00 
 8.1880560148803614e+00  8.2951956417697552e+00  8.4037371764659792e+00  8.5136989627467337e+00 
 8.6250995844156186e+00  8.7379578684428409e+00  8.8522928881470158e+00  8.9681239664186005e+00 
 9.0854706789855282e+00  9.2043528577214904e+00  9.3247905939976548e+00  9.4468042420781089e+00 
 9.5704144225597805e+00  9.6956420258573797e+00  9.8225082157339152e+00  9.9510344328774263e+00 
 1.0081242398524521e+01  1.0213154118131296e+01  1.0346791885092333e+01  1.0482178284508317e+01 
 1.0619336197002980e+01  1.0758288802589981e+01  1.0899059584590390e+01  1.1041672333601410e+01 
 1.1186151151517057e+01  1.1332520455601433e+01  1.1480804982615322e+01  1.1631029792996676e+01 
 1.1783220275096028e+01  1.1937402149467072e+01  1.2093601473213548e+01  1.2251844644392939e+01 
 1.2412158406477808e+01  1.2574569852875507e+01  1.2739106431507038e+01  1.2905795949445801e+01 
 1.3074666577617059e+01  1.3245746855558906e+01  1.3419065696245500e+01  1.3594652390973438e+01 
 1.3772536614312038e+01  1.3952748429118426e+01  1.4135318291618223e+01  1.4320277056552728e+01 
 1.4507655982393462e+01  1.4697486736624823e+01  1.4889801401096113e+01  1.5084632477443353e+01 
 1.5282012892582166e+01  1.5481976004272498e+01  1.5684555606756151e+01  1.5889785936468103e+01 
 1.6097701677822549e+01  1.6308337969074628e+01  1.6521730408258911e+01  1.6737915059205502e+01 
 1.6956928457634959e+01  1.7178807617332883e+01  1.7403590036405362e+01  1.7631313703616218e+01 
 1.7862017104807219e+01  1.8095739229402266e+01  1.8332519576996717e+01  1.8572398164032823e+01 
 1.8815415530562756e+01  1.9061612747099858e+01  1.9311031421559708e+01  1.9563713706291917e+01 
 1.9819702305204029e+01  2.0079040480978524e+01  2.0341772062384369e+01  2.0607941451684134e+01 
 2.0877593632138137e+01  2.1150774175606653e+01  2.1427529250251741e+01  2.1707905628339713e+01 
 2.1991950694145789e+01  2.2279712451962151e+01  2.2571239534210761e+01  2.2866581209662385e+01 
 2.3165787391763160e+01  2.3468908647069920e+01  2.3775996203796304e+01  2.4087101960470306e+01 
 2.4402278494705254e+01  2.4721579072085600e+01  2.5045057655168868e+01  2.5372768912605522e+01 
 2.5704768228378057e+01  2.6041111711161015e+01  2.6381856203803526e+01  2.6727059292935849e+01 
 2.7076779318701661e+01  2.7431075384617706e+01  2.7790007367562346e+01  2.8153635927895021e+01 
 2.8522022519707875e+01  2.8895229401211793e+01  2.9273319645257907e+01  2.9656357149997397e+01 
 3.0044406649680241e+01  3.0437533725595472e+01  3.0835804817154603e+01  3.1239287233120031e+01 
 3.1648049162980382e+01  3.2062159688474694e+01  3.2481688795267409e+01  3.2906707384776070e+01 
 3.3337287286153916e+01  3.3773501268429087e+01  3.4215423052802819e+01  3.4663127325108505e+01 
 3.5116689748433721e+01  3.5576186975907547e+01  3.6041696663655060e+01  3.6513297483921519e+01 
 3.6991069138367891e+01  3.7475092371540967e+01  3.7965448984519156e+01  3.8462221848737201e+01 
 3.8965494919991471e+01  3.9475353252628871e+01  3.9991883013921132e+01  4.0515171498627289e+01 
 4.1045307143746740e+01  4.1582379543465294e+01  4.2126479464296771e+01  4.2677698860422815e+01 
 4.3236130889233323e+01  4.3801869927070278e+01  4.4375011585177610e+01  4.4955652725859643e+01 
 4.5543891478851158e+01  4.6139827257901544e+01  4.6743560777575688e+01  4.7355194070275438e+01 
 4.7974830503483012e+01  4.8602574797230403e+01  4.9238533041797368e+01  4.9882812715640867e+01 
 5.0535522703559209e+01  5.1196773315093907e+01  5.1866676303172127e+01  5.2545344882993277e+01 
 5.3232893751162663e+01  5.3929439105075446e+01  5.4635098662554256e+01  5.5349991681743866e+01 
 5.6074238981266021e+01  5.6807962960638115e+01  5.7551287620959016e+01  5.8304338585865594e+01 
 5.9067243122763031e+01  5.9840130164333985e+01  6.0623130330327996e+01  6.1416375949636745e+01 
 6.2220001082657923e+01  6.3034141543951677e+01  6.3858934925193722e+01  6.4694520618428555e+01 
 6.5541039839627118e+01  6.6398635652552599e+01  6.7267452992938530e+01  6.8147638692983335e+01 
 6.9039341506165215e+01  6.9942712132381928e+01  7.0857903243419457e+01  7.1785069508753807e+01 
 7.2724367621690504e+01  7.3675956325846457e+01  7.4639996441977246e+01  7.5616650895157150e+01 
 7.6606084742313243e+01  7.7608465200120719e+01  7.8623961673262656e+01  7.9652745783060013e+01 
 8.0694991396475928e+01  8.1750874655499743e+01  8.2820574006915336e+01  8.3904270232459098e+01 
 8.5002146479372399e+01  8.6114388291354032e+01  8.7241183639917509e+01  8.8382722956158560e+01 
 8.9539199162938658e+01  9.0710807707489238e+01  9.1897746594442864e+01  9.3100216419296643e+01 
 9.4318420402312668e+01  9.5552564422863654e+01  9.6802857054226422e+01  9.8069509598831544e+01 
 9.9352736123973756e+01  1.0065275349799006e+02  1.0196978142691083e+02  1.0330404249159071e+02 
 1.0465576218532523e+02  1.0602516895195991e+02  1.0741249422449765e+02  1.0881797246421148e+02 
 1.1024184120026904e+02  1.1168434106987569e+02  1.1314571585894269e+02  1.1462621254328761e+02 
 1.1612608133037381e+02  1.1764557570159634e+02 
  </PP_R>
  <PP_RAB>