  <PP_INFO>

############################################################
#    Opium Parameter File                                  #
############################################################
#-----------------------------------------------------------
#Command line   : /usr/local/bin/opium pt pt.log all ke rpt upf 
 
#Opium version  : 3.7 
#Compile Host   : vagvlan567.0906.wlan.wireless-pennnet.upenn.edu 
#Compile OS     : Darwin 14.4.0 i386 
#Compile Date   : Wed Aug  5 13:43:13 EDT 2015 
#-----------------------------------------------------------
#Execution Host : modv-ve509-0611.apn.wlan.upenn.edu 
#Execution Date : Thu Dec 14 11:51:05 2017
 
#-----------------------------------------------------------
############################################################
[Atom]
Pt
15
100 2.00  -
200 2.00  -
210 6.00  -
300 2.00  -
310 6.00  - 
320 10.0  -
400 2.00  -
410 6.00  -
500 2.00  -
510 6.00  -
420 10.0  -
430 14.0  -
600 0.25  -
610 0.00  -
520 9.75  -

[Pseudo]
3 2.25 2.30 2.20
opt

[XC]
pbe  

[Relativity]
frl

[Optinfo]
5.50 10	
3.00 10
5.80 10

[Configs]
2	
#
600 2.00 -
610 0.00 -
520 6.00 -
#
600 1.00 -
610 0.00 -
520 7.00 -

[Grid]
2402 .0001 .0065 


############################################################
  </PP_INFO>



<PP_HEADER>
   0         Version Number
   Pt        Element
   NC        Norm - Conserving pseudopotential
    F      Nonlinear Core Correction
SLA  PW   PBE  PBE     PBE  Exchange-Correlation functional
 10          Z valence
 0          Total energy
 0.000000   0.000000     Suggested cutoff for wfc and rho
 2           Max angular momentum component
 2376           Number of points in mesh
 5  4     Number of Wavefuncitons, Number of Projectors
 Wavefunctions         nl  l   occ
                       S  0  0.250000
                       P  1  0.000000
                       P  1  0.000000
                       D  2  3.900000
                       D  2  5.850000
</PP_HEADER>
<PP_MESH>
  <PP_R>
 2.3404631038831515e-05  2.3557256636407124e-05  2.3710877531579894e-05  2.3865500214855491e-05 
 2.4021131219065293e-05  2.4177777119642372e-05  2.4335444534899332e-05  2.4494140126307919e-05 
 2.4653870598780478e-05  2.4814642700953235e-05  2.4976463225471442e-05  2.5139339009276286e-05 
 2.5303276933893882e-05  2.5468283925725942e-05  2.5634366956342400e-05  2.5801533042776022e-05 
 2.5969789247818811e-05  2.6139142680320475e-05  2.6309600495488717e-05  2.6481169895191590e-05 
 2.6653858128261755e-05  2.6827672490802739e-05  2.7002620326497231e-05  2.7178709026917293e-05 
 2.7355946031836725e-05  2.7534338829545348e-05  2.7713894957165407e-05  2.7894622000970018e-05 
 2.8076527596703620e-05  2.8259619429904723e-05  2.8443905236230507e-05  2.8629392801783704e-05 
 2.8816089963441563e-05  2.9004004609186922e-05  2.9193144678441522e-05  2.9383518162401420e-05 
 2.9575133104374643e-05  2.9767997600120982e-05  2.9962119798194082e-05  3.0157507900285681e-05 
 3.0354170161572158e-05  3.0552114891063312e-05  3.0751350451953404e-05  3.0951885261974527e-05 
 3.1153727793752217e-05  3.1356886575163492e-05  3.1561370189697098e-05  3.1767187276816107e-05 
 3.1974346532323110e-05  3.2182856708727462e-05  3.2392726615615134e-05  3.2603965120020902e-05 
 3.2816581146803009e-05  3.3030583679020217e-05  3.3245981758311336e-05  3.3462784485277268e-05 
 3.3681001019865478e-05  3.3900640581757002e-05  3.4121712450756011e-05  3.4344225967181844e-05 
 3.4568190532263698e-05  3.4793615608537735e-05  3.5020510720246971e-05  3.5248885453743664e-05 
 3.5478749457894204e-05  3.5710112444487005e-05  3.5942984188642648e-05  3.6177374529226984e-05 
 3.6413293369266758e-05  3.6650750676368048e-05  3.6889756483137422e-05  3.7130320887605758e-05 
 3.7372454053654932e-05  3.7616166211447235e-05  3.7861467657857571e-05  3.8108368756908542e-05 
 3.8356879940208335e-05  3.8607011707391389e-05  3.8858774626562079e-05  3.9112179334741197e-05 
 3.9367236538315394e-05  3.9623957013489353e-05  3.9882351606741479e-05  4.0142431235281672e-05 
 4.0404206887512955e-05  4.0667689623495593e-05  4.0932890575414352e-05  4.1199820948048910e-05 
 4.1468492019247227e-05  4.1738915140402015e-05  4.2011101736930371e-05  4.2285063308756498e-05 
 4.2560811430797553e-05  4.2838357753452709e-05  4.3117714003095384e-05  4.3398891982568686e-05 
 4.3681903571684065e-05  4.3966760727723272e-05  4.4253475485943524e-05  4.4542059960086038e-05 
 4.4832526342887698e-05  4.5124886906596427e-05  4.5419154003489526e-05  4.5715340066395621e-05 
 4.6013457609219928e-05  4.6313519227472976e-05  4.6615537598802768e-05  4.6919525483530424e-05 
 4.7225495725189294e-05  4.7533461251067601e-05  4.7843435072754627e-05  4.8155430286690443e-05 
 4.8469460074719254e-05  4.8785537704646319e-05  4.9103676530798519e-05  4.9423889994588583e-05 
 4.9746191625083031e-05  5.0070595039573570e-05  5.0397113944152879e-05  5.0725762134293148e-05 
 5.1056553495429313e-05  5.1389502003545604e-05  5.1724621725765998e-05  5.2061926820948630e-05 
 5.2401431540283937e-05  5.2743150227896833e-05  5.3087097321452677e-05  5.3433287352767349e-05 
 5.3781734948421165e-05  5.4132454830376869e-05  5.4485461816601661e-05  5.4840770821693201e-05 
 5.5198396857509829e-05  5.5558355033804750e-05  5.5920660558864443e-05  5.6285328740151312e-05 
 5.6652374984950147e-05  5.7021814801019436e-05  5.7393663797246381e-05  5.7767937684306372e-05 
 5.8144652275326827e-05  5.8523823486555240e-05  5.8905467338031696e-05  5.9289599954265698e-05 
 5.9676237564917407e-05  6.0065396505483396e-05  6.0457093217986811e-05  6.0851344251671993e-05 
 6.1248166263703767e-05  6.1647576019871207e-05  6.2049590395295872e-05  6.2454226375144957e-05 
 6.2861501055348857e-05  6.3271431643323214e-05  6.3684035458696589e-05  6.4099329934041375e-05 
 6.4517332615611017e-05  6.4938061164080955e-05  6.5361533355294961e-05  6.5787767081016110e-05 
 6.6216780349682744e-05  6.6648591287169227e-05  6.7083218137551948e-05  6.7520679263879970e-05 
 6.7960993148950957e-05  6.8404178396092038e-05  6.8850253729945860e-05  6.9299237997261616e-05 
 6.9751150167691396e-05  7.0206009334591692e-05  7.0663834715829765e-05  7.1124645654596335e-05 
 7.1588461620221872e-05  7.2055302209000162e-05  7.2525187145015319e-05  7.2998136280975879e-05 
 7.3474169599053166e-05  7.3953307211725705e-05  7.4435569362628904e-05  7.4920976427410356e-05 
 7.5409548914590765e-05  7.5901307466430399e-05  7.6396272859801219e-05  7.6894466007064723e-05 
 7.7395907956955497e-05  7.7900619895470522e-05  7.8408623146764250e-05  7.8919939174049655e-05 
 7.9434589580504981e-05  7.9952596110186288e-05  8.0473980648946772e-05  8.0998765225360534e-05 
 8.1526972011654086e-05  8.2058623324642694e-05  8.2593741626673444e-05  8.3132349526574177e-05 
 8.3674469780608795e-05  8.4220125293438686e-05  8.4769339119090408e-05  8.5322134461929825e-05 
 8.5878534677642391e-05  8.6438563274219966e-05  8.7002243912954102e-05  8.7569600409435604e-05 
 8.8140656734560864e-05  8.8715437015544622e-05  8.9293965536939044e-05  8.9876266741660530e-05 
 9.0462365232021251e-05  9.1052285770769971e-05  9.1646053282136945e-05  9.2243692852887914e-05 
 9.2845229733383693e-05  9.3450689338646936e-05  9.4060097249436020e-05  9.4673479213325847e-05 
 9.5290861145795627e-05  9.5912269131323861e-05  9.6537729424490360e-05  9.7167268451085539e-05 
 9.7800912809226933e-05  9.8438689270482956e-05  9.9080624781003931e-05  9.9726746462660686e-05 
 1.0037708161419047e-04  1.0103165771234990e-04  1.0169050241307688e-04  1.0235364355265773e-04 
 1.0302110914890431e-04  1.0369292740233742e-04  1.0436912669737816e-04  1.0504973560354732e-04 
 1.0573478287667245e-04  1.0642429746010276e-04  1.0711830848593194e-04  1.0781684527622904e-04 
 1.0851993734427745e-04  1.0922761439582158e-04  1.0993990633032212e-04  1.1065684324221926e-04 
 1.1137845542220421e-04  1.1210477335849899e-04  1.1283582773814415e-04  1.1357164944829638e-04 
 1.1431226957753205e-04  1.1505771941716209e-04  1.1580803046255288e-04  1.1656323441445779e-04 
 1.1732336318035611e-04  1.1808844887580130e-04  1.1885852382577778e-04  1.1963362056606675e-04 
 1.2041377184462077e-04  1.2119901062294747e-04  1.2198937007750196e-04  1.2278488360108880e-04 
 1.2358558480427275e-04  1.2439150751679864e-04  1.2520268578902107e-04  1.2601915389334265e-04 
 1.2684094632566236e-04  1.2766809780683240e-04  1.2850064328412633e-04  1.2933861793271403e-04 
 1.3018205715714925e-04  1.3103099659286463e-04  1.3188547210767765e-04  1.3274551980330587e-04 
 1.3361117601689239e-04  1.3448247732254103e-04  1.3535946053286154e-04  1.3624216270052500e-04 
 1.3713062111982933e-04  1.3802487332827490e-04  1.3892495710815053e-04  1.3983091048812982e-04 
 1.4074277174487784e-04  1.4166057940466845e-04  1.4258437224501144e-04  1.4351418929629223e-04 
 1.4445006984341907e-04  1.4539205342748476e-04  1.4634017984743551e-04  1.4729448916175365e-04 
 1.4825502169014978e-04  1.4922181801526607e-04  1.5019491898439101e-04  1.5117436571118539e-04 
 1.5216019957741902e-04  1.5315246223471951e-04  1.5415119560633164e-04  1.5515644188888897e-04 
 1.5616824355419646e-04  1.5718664335102501e-04  1.5821168430691748e-04  1.5924340973000678e-04 
 1.6028186321084562e-04  1.6132708862424765e-04  1.6237913013114261e-04  1.6343803218044024e-04 
 1.6450383951090977e-04  1.6557659715306949e-04  1.6665635043108936e-04  1.6774314496470594e-04 
 1.6883702667115001e-04  1.6993804176708636e-04  1.7104623677056656e-04  1.7216165850299437e-04 
 1.7328435409110391e-04  1.7441437096895078e-04  1.7555175687991619e-04  1.7669655987872420e-04 
 1.7784882833347135e-04  1.7900861092767185e-04  1.8017595666231225e-04  1.8135091485792411e-04 
 1.8253353515666532e-04  1.8372386752442009e-04  1.8492196225290735e-04  1.8612786996180823e-04 
 1.8734164160090239e-04  1.8856332845222231e-04  1.8979298213221913e-04  1.9103065459394374e-04 
 1.9227639812924180e-04  1.9353026537096300e-04  1.9479230929518476e-04  1.9606258322345070e-04 
 1.9734114082502335e-04  1.9862803611915106e-04  1.9992332347735215e-04  2.0122705762570949e-04 
 2.0253929364718551e-04  2.0386008698394659e-04  2.0518949343970838e-04  2.0652756918209067e-04 
 2.0787437074499336e-04  2.0922995503098229e-04  2.1059437931369537e-04  2.1196770124026152e-04 
 2.1334997883373639e-04  2.1474127049555397e-04  2.1614163500799388e-04  2.1755113153666515e-04 
 2.1896981963300579e-04  2.2039775923679881e-04  2.2183501067870494e-04  2.2328163468281163e-04 
 2.2473769236919765e-04  2.2620324525651756e-04  2.2767835526459819e-04  2.2916308471705745e-04 
 2.3065749634393492e-04  2.3216165328434485e-04  2.3367561908914093e-04  2.3519945772360447e-04 
 2.3673323357014382e-04  2.3827701143101684e-04  2.3983085653106785e-04  2.4139483452048345e-04 
 2.4296901147756629e-04  2.4455345391152702e-04  2.4614822876529416e-04  2.4775340341834254e-04 
 2.4936904568954009e-04  2.5099522384001288e-04  2.5263200657602990e-04  2.5427946305190508e-04 
 2.5593766287291961e-04  2.5760667609826268e-04  2.5928657324399129e-04  2.6097742528600977e-04 
 2.6267930366306831e-04  2.6439228027978182e-04  2.6611642750966672e-04  2.6785181819820021e-04 
 2.6959852566589695e-04  2.7135662371140733e-04  2.7312618661463531e-04  2.7490728913987672e-04 
 2.7670000653897824e-04  2.7850441455451669e-04  2.8032058942299920e-04  2.8214860787808394e-04 
 2.8398854715382262e-04  2.8584048498792345e-04  2.8770449962503531e-04  2.8958066982005392e-04 
 2.9146907484144910e-04  2.9336979447461395e-04  2.9528290902523574e-04  2.9720849932268891e-04 
 2.9914664672344961e-04  3.0109743311453415e-04  3.0306094091695764e-04  3.0503725308921682e-04 
 3.0702645313079494e-04  3.0902862508568974e-04  3.1104385354596405e-04  3.1307222365532014e-04 
 3.1511382111269699e-04  3.1716873217589061e-04  3.1923704366519927e-04  3.2131884296709095e-04 
 3.2341421803789596e-04  3.2552325740752269e-04  3.2764605018319816e-04  3.2978268605323308e-04 
 3.3193325529081070e-04  3.3409784875780129e-04  3.3627655790860071e-04  3.3846947479399469e-04 
 3.4067669206504789e-04  3.4289830297701832e-04  3.4513440139329759e-04  3.4738508178937624e-04 
 3.4965043925683594e-04  3.5193056950736669e-04  3.5422556887681079e-04  3.5653553432923277e-04 
 3.5886056346101679e-04  3.6120075450498941e-04  3.6355620633457054e-04  3.6592701846795020e-04 
 3.6831329107229370e-04  3.7071512496797372e-04  3.7313262163282944e-04  3.7556588320645487e-04 
 3.7801501249451301e-04  3.8048011297308086e-04  3.8296128879302028e-04  3.8545864478437876e-04 
 3.8797228646081849e-04  3.9050232002407412e-04  3.9304885236844011e-04  3.9561199108528684e-04 
 3.9819184446760652e-04  4.0078852151458798e-04  4.0340213193622288e-04  4.0603278615794036e-04 
 4.0868059532527256e-04  4.1134567130855071e-04  4.1402812670763152e-04  4.1672807485665473e-04 
 4.1944562982883113e-04  4.2218090644126279e-04  4.2493402025979316e-04  4.2770508760389068e-04 
 4.3049422555156296e-04  4.3330155194430312e-04  4.3612718539206885e-04  4.3897124527829374e-04 
 4.4183385176493092e-04  4.4471512579753042e-04  4.4761518911034875e-04  4.5053416423149206e-04 
 4.5347217448809358e-04  4.5642934401152359e-04  4.5940579774263451e-04  4.6240166143703907e-04 
 4.6541706167042406e-04  4.6845212584389808e-04  4.7150698218937362e-04  4.7458175977498627e-04 
 4.7767658851054565e-04  4.8079159915302667e-04  4.8392692331209228e-04  4.8708269345565451e-04 
 4.9025904291547147e-04  4.9345610589278030e-04  4.9667401746396735e-04  4.9991291358627524e-04 
 5.0317293110354710e-04  5.0645420775200759e-04  5.0975688216608334e-04  5.1308109388425983e-04 
 5.1642698335497639e-04  5.1979469194256105e-04  5.2318436193320248e-04  5.2659613654096218e-04 
 5.3003015991382482e-04  5.3348657713978888e-04  5.3696553425299583e-04  5.4046717823990156e-04 
 5.4399165704548536e-04  5.4753911957950102e-04  5.5110971572276820e-04  5.5470359633350529e-04 
 5.5832091325370265e-04  5.6196181931553830e-04  5.6562646834783508e-04  5.6931501518255935e-04 
 5.7302761566136373e-04  5.7676442664217082e-04  5.8052560600580037e-04  5.8431131266263993e-04 
 5.8812170655935902e-04  5.9195694868566652e-04  5.9581720108111281e-04  5.9970262684193602e-04 
 6.0361339012795210e-04  6.0754965616949188e-04  6.1151159127438104e-04  6.1549936283496719e-04 
 6.1951313933519207e-04  6.2355309035770981e-04  6.2761938659105197e-04  6.3171219983683944e-04 
 6.3583170301704096e-04  6.3997807018127803e-04  6.4415147651418036e-04  6.4835209834278654e-04 
 6.5258011314399357e-04  6.5683569955205586e-04  6.6111903736613194e-04  6.6543030755788178e-04 
 6.6976969227911236e-04  6.7413737486947400e-04  6.7853353986420503e-04  6.8295837300193089e-04 
 6.8741206123250982e-04  6.9189479272493211e-04  6.9640675687527014e-04  7.0094814431468050e-04 
 7.0551914691745785e-04  7.1011995780914238e-04  7.1475077137467876e-04  7.1941178326662852e-04 
 7.2410319041343765e-04  7.2882519102775612e-04  7.3357798461481211e-04  7.3836177198084176e-04 
 7.4317675524157296e-04  7.4802313783076471e-04  7.5290112450880219e-04  7.5781092137134861e-04 
 7.6275273585805126e-04  7.6772677676130755e-04  7.7273325423508530e-04  7.7777237980380292e-04 
 7.8284436637126513e-04  7.8794942822965879e-04  7.9308778106860686e-04  7.9825964198428122e-04 
 8.0346522948857523e-04  8.0870476351833454e-04  8.1397846544465171e-04  8.1928655808221761e-04 
 8.2462926569873592e-04  8.3000681402439801e-04  8.3541943026142068e-04  8.4086734309364499e-04 
 8.4635078269619860e-04  8.5186998074522071e-04  8.5742517042764941e-04  8.6301658645107518e-04 
 8.6864446505365673e-04  8.7430904401410267e-04  8.8001056266171613e-04  8.8574926188650848e-04 
 8.9152538414937561e-04  8.9733917349234227e-04  9.0319087554887342e-04  9.0908073755425068e-04 
 9.1500900835602024e-04  9.2097593842450551e-04  9.2698177986338926e-04  9.3302678642036567e-04 
 9.3911121349786139e-04  9.4523531816382515e-04  9.5139935916259020e-04  9.5760359692580622e-04 
 9.6384829358344055e-04  9.7013371297485632e-04  9.7646012065995800e-04  9.8282778393041139e-04 
 9.8923697182093677e-04  9.9568795512067600e-04  1.0021810063846330e-03  1.0087163999451894e-03 
 1.0152944119236962e-03  1.0219153202421370e-03  1.0285794046348733e-03  1.0352869466604621e-03 
 1.0420382297135519e-03  1.0488335390368558e-03  1.0556731617332039e-03  1.0625573867776724e-03 
 1.0694865050297931e-03  1.0764608092458437e-03  1.0834805940912141e-03  1.0905461561528586e-03 
 1.0976577939518250e-03  1.1048158079558683e-03  1.1120205005921450e-03  1.1192721762599911e-03 
 1.1265711413437818e-03  1.1339177042258778e-03  1.1413121752996544e-03  1.1487548669826132e-03 
 1.1562460937295856e-03  1.1637861720460159e-03  1.1713754205013346e-03  1.1790141597424178e-03 
 1.1867027125071349e-03  1.1944414036379840e-03  1.2022305600958166e-03  1.2100705109736518e-03 
 1.2179615875105799e-03  1.2259041231057583e-03  1.2338984533324983e-03  1.2419449159524402e-03 
 1.2500438509298274e-03  1.2581956004458672e-03  1.2664005089131891e-03  1.2746589229903967e-03 
 1.2829711915967130e-03  1.2913376659267231e-03  1.2997586994652121e-03  1.3082346480020996e-03 
 1.3167658696474735e-03  1.3253527248467147e-03  1.3339955763957342e-03  1.3426947894562957e-03 
 1.3514507315714446e-03  1.3602637726810381e-03  1.3691342851373737e-03  1.3780626437209227e-03 
 1.3870492256561633e-03  1.3960944106275190e-03  1.4051985807954001e-03  1.4143621208123507e-03 
 1.4235854178392998e-03  1.4328688615619185e-03  1.4422128442070853e-03  1.4516177605594569e-03 
 1.4610840079781480e-03  1.4706119864135205e-03  1.4802020984240817e-03  1.4898547491934882e-03 
 1.4995703465476718e-03  1.5093493009720664e-03  1.5191920256289509e-03  1.5290989363749064e-03 
 1.5390704517783856e-03  1.5491069931373972e-03  1.5592089844973071e-03  1.5693768526687528e-03 
 1.5796110272456769e-03  1.5899119406234778e-03  1.6002800280172783e-03  1.6107157274803129e-03 
 1.6212194799224357e-03  1.6317917291287509e-03  1.6424329217783597e-03  1.6531435074632343e-03 
 1.6639239387072147e-03  1.6747746709851214e-03  1.6856961627420093e-03  1.6966888754125298e-03 
 1.7077532734404279e-03  1.7188898242981661e-03  1.7300989985066756e-03  1.7413812696552332e-03 
 1.7527371144214741e-03  1.7641670125915277e-03  1.7756714470802935e-03  1.7872509039518387e-03 
 1.7989058724399393e-03  1.8106368449687471e-03  1.8224443171735972e-03  1.8343287879219465e-03 
 1.8462907593344514e-03  1.8583307368061843e-03  1.8704492290279858e-03  1.8826467480079513e-03 
 1.8949238090930742e-03  1.9072809309910112e-03  1.9197186357920010e-03  1.9322374489909218e-03 
 1.9448378995094930e-03  1.9575205197186240e-03  1.9702858454609044e-03  1.9831344160732463e-03 
 1.9960667744096695e-03  2.0090834668642374e-03  2.0221850433941421e-03  2.0353720575429410e-03 
 2.0486450664639441e-03  2.0620046309437522e-03  2.0754513154259521e-03  2.0889856880349630e-03 
 2.1026083206000436e-03  2.1163197886794418e-03  2.1301206715847263e-03  2.1440115524052517e-03 
 2.1579930180327996e-03  2.1720656591863725e-03  2.1862300704371526e-03  2.2004868502336224e-03 
 2.2148366009268491e-03  2.2292799287959336e-03  2.2438174440736272e-03  2.2584497609721131e-03 
 2.2731774977089564e-03  2.2880012765332256e-03  2.3029217237517810e-03  2.3179394697557362e-03 
 2.3330551490470955e-03  2.3482694002655564e-03  2.3635828662154986e-03  2.3789961938931320e-03 
 2.3945100345138456e-03  2.4101250435397139e-03  2.4258418807071910e-03  2.4416612100549855e-03 
 2.4575836999521142e-03  2.4736100231261457e-03  2.4897408566916168e-03  2.5059768821786457e-03 
 2.5223187855617237e-03  2.5387672572887007e-03  2.5553229923099539e-03  2.5719866901077501e-03 
 2.5887590547257998e-03  2.6056407947990037e-03  2.6226326235833917e-03  2.6397352589862563e-03 
 2.6569494235964904e-03  2.6742758447151050e-03  2.6917152543859718e-03  2.7092683894267438e-03 
 2.7269359914599868e-03  2.7447188069445161e-03  2.7626175872069304e-03  2.7806330884733587e-03 
 2.7987660719014087e-03  2.8170173036123286e-03  2.8353875547233722e-03  2.8538776013803829e-03 
 2.8724882247905810e-03  2.8912202112555754e-03  2.9100743522045792e-03  2.9290514442278535e-03 
 2.9481522891103584e-03  2.9673776938656318e-03  2.9867284707698876e-03  3.0062054373963224e-03 
 3.0258094166496770e-03  3.0455412368009904e-03  3.0654017315225992e-03  3.0853917399233603e-03 
 3.1055121065841013e-03  3.1257636815933080e-03  3.1461473205830356e-03  3.1666638847650643e-03 
 3.1873142409672836e-03  3.2080992616703129e-03  3.2290198250443706e-03  3.2500768149863702e-03 
 3.2712711211572701e-03  3.2926036390196578e-03  3.3140752698755868e-03  3.3356869209046546e-03 
 3.3574395052023355e-03  3.3793339418185450e-03  3.4013711557964910e-03  3.4235520782117412e-03 
 3.4458776462115682e-03  3.4683488030545408e-03  3.4909664981503776e-03  3.5137316871000621e-03 
 3.5366453317362124e-03  3.5597084001637246e-03  3.5829218668006688e-03  3.6062867124194643e-03 
 3.6298039241883149e-03  3.6534744957129150e-03  3.6772994270784331e-03  3.7012797248917638e-03 
 3.7254164023240565e-03  3.7497104791535231e-03  3.7741629818085274e-03  3.7987749434109366e-03 
 3.8235474038197936e-03  3.8484814096752351e-03  3.8735780144427178e-03  3.8988382784575261e-03 
 3.9242632689695731e-03  3.9498540601884896e-03  3.9756117333290108e-03  4.0015373766566593e-03 
 4.0276320855337213e-03  4.0538969624655296e-03  4.0803331171470414e-03  4.1069416665097244e-03 
 4.1337237347687465e-03  4.1606804534704772e-03  4.1878129615402901e-03  4.2151224053306883e-03 
 4.2426099386697379e-03  4.2702767229098031e-03  4.2981239269766387e-03  4.3261527274187578e-03 
 4.3543643084571499e-03  4.3827598620353085e-03  4.4113405878695982e-03  4.4401076934999359e-03 
 4.4690623943408137e-03  4.4982059137326502e-03  4.5275394829934739e-03  4.5570643414709509e-03 
 4.5867817365947425e-03  4.6166929239292139e-03  4.6467991672264793e-03  4.6771017384797959e-03 
 4.7076019179773092e-03  4.7383009943561365e-03  4.7692002646568289e-03  4.8003010343781426e-03 
 4.8316046175322300e-03  4.8631123367001350e-03  4.8948255230876802e-03  4.9267455165817068e-03 
 4.9588736658066901e-03  4.9912113281817133e-03  5.0237598699778207e-03  5.0565206663757472e-03 
 5.0894951015240126e-03  5.1226845685974067e-03  5.1560904698558525e-03  5.1897142167036453e-03 
 5.2235572297490915e-03  5.2576209388645271e-03  5.2919067832467295e-03  5.3264162114777247e-03 
 5.3611506815859919e-03  5.3961116611080523e-03  5.4313006271504947e-03  5.4667190664523697e-03 
 5.5023684754480062e-03  5.5382503603302385e-03  5.5743662371140383e-03  5.6107176317005741e-03 
 5.6473060799416734e-03  5.6841331277047175e-03  5.7212003309379533e-03  5.7585092557362310e-03 
 5.7960614784071723e-03  5.8338585855377727e-03  5.8719021740614294e-03  5.9101938513254166e-03 
 5.9487352351587980e-03  5.9875279539407696e-03  6.0265736466694779e-03  6.0658739630312392e-03 
 6.1054305634702689e-03  6.1452451192588213e-03  6.1853193125678014e-03  6.2256548365378379e-03 
 6.2662533953508166e-03  6.3071167043018891e-03  6.3482464898719356e-03  6.3896444898005151e-03 
 6.4313124531592833e-03  6.4732521404258893e-03  6.5154653235583605e-03  6.5579537860699626e-03 
 6.6007193231045575e-03  6.6437637415124456e-03  6.6870888599267087e-03  6.7306965088400443e-03 
 6.7745885306821126e-03  6.8187667798973520e-03  6.8632331230233717e-03  6.9079894387697816e-03 
 6.9530376180975814e-03  6.9983795642990466e-03  7.0440171930781495e-03  7.0899524326314967e-03 
 7.1361872237297912e-03  7.1827235197998362e-03  7.2295632870070610e-03  7.2767085043385976e-03 
 7.3241611636868931e-03  7.3719232699338624e-03  7.4199968410356013e-03  7.4683839081076380e-03 
 7.5170865155107540e-03  7.5661067209373579e-03  7.6154465954984280e-03  7.6651082238109900e-03 
 7.7150937040862339e-03  7.7654051482181387e-03  7.8160446818727018e-03  7.8670144445777516e-03 
 7.9183165898133456e-03  7.9699532851027523e-03  8.0219267121040289e-03  8.0742390667021963e-03 
 8.1268925591020200e-03  8.1798894139213842e-03  8.2332318702852889e-03  8.2869221819204513e-03 
 8.3409626172505236e-03  8.3953554594919395e-03  8.4501030067503733e-03  8.5052075721178400e-03 
 8.5606714837704340e-03  8.6164970850666541e-03  8.6726867346464693e-03  8.7292428065309322e-03 
 8.7861676902224930e-03  8.8434637908059565e-03  8.9011335290500957e-03  8.9591793415099274e-03 
 9.0176036806296645e-03  9.0764090148463261e-03  9.1355978286940306e-03  9.1951726229089654e-03 
 9.2551359145350513e-03  9.3154902370302765e-03  9.3762381403737459e-03  9.4373821911734150e-03 
 9.4989249727745195e-03  9.5608690853687429e-03  9.6232171461040610e-03  9.6859717891952992e-03 
 9.7491356660354724e-03  9.8127114453077733e-03  9.8767018130983316e-03  9.9411094730097044e-03 
 1.0005937146275108e-02  1.0071187571873379e-02  1.0136863506644705e-02  1.0202967725407099e-02 
 1.0269503021073639e-02  1.0336472204770464e-02  1.0403878105955547e-02  1.0471723572538240e-02 
 1.0540011470999595e-02  1.0608744686513488e-02  1.0677926123068492e-02  1.0747558703590595e-02 
 1.0817645370066692e-02  1.0888189083668849e-02  1.0959192824879468e-02  1.1030659593617176e-02 
 1.1102592409363586e-02  1.1174994311290863e-02  1.1247868358390133e-02  1.1321217629600725e-02 
 1.1395045223940260e-02  1.1469354260635584e-02  1.1544147879254544e-02  1.1619429239838660e-02 
 1.1695201523036611e-02  1.1771467930238635e-02  1.1848231683711782e-02  1.1925496026736055e-02 
 1.2003264223741438e-02  1.2081539560445826e-02  1.2160325343993847e-02  1.2239624903096555e-02 
 1.2319441588172131e-02  1.2399778771487390e-02  1.2480639847300279e-02  1.2562028232003279e-02 
 1.2643947364267751e-02  1.2726400705189218e-02  1.2809391738433601e-02  1.2892923970384400e-02 
 1.2977000930290838e-02  1.3061626170416982e-02  1.3146803266191812e-02  1.3232535816360299e-02 
 1.3318827443135438e-02  1.3405681792351297e-02  1.3493102533617050e-02  1.3581093360472019e-02 
 1.3669657990541744e-02  1.3758800165694992e-02  1.3848523652201936e-02  1.3938832240893229e-02 
 1.4029729747320177e-02  1.4121220011915949e-02  1.4213306900157830e-02  1.4305994302730550e-02 
 1.4399286135690654e-02  1.4493186340631962e-02  1.4587698884852104e-02  1.4682827761520131e-02 
 1.4778576989845228e-02  1.4874950615246543e-02  1.4971952709524080e-02  1.5069587371030754e-02 
 1.5167858724845535e-02  1.5266770922947743e-02  1.5366328144392476e-02  1.5466534595487117e-02 
 1.5567394509969152e-02  1.5668912149184967e-02  1.5771091802269915e-02  1.5873937786329551e-02 
 1.5977454446621991e-02  1.6081646156741534e-02  1.6186517318803433e-02  1.6292072363629881e-02 
 1.6398315750937226e-02  1.6505251969524386e-02  1.6612885537462509e-02  1.6721221002285843e-02 
 1.6830262941183893e-02  1.6940015961194804e-02  1.7050484699399997e-02  1.7161673823120088e-02 
 1.7273588030112117e-02  1.7386232048767936e-02  1.7499610638314119e-02  1.7613728589012927e-02 
 1.7728590722364761e-02  1.7844201891311837e-02  1.7960566980443245e-02  1.8077690906201309e-02 
 1.8195578617089311e-02  1.8314235093880579e-02  1.8433665349828904e-02  1.8553874430880364e-02 
 1.8674867415886524e-02  1.8796649416818988e-02  1.8919225578985416e-02  1.9042601081246897e-02 
 1.9166781136236748e-02  1.9291770990580787e-02  1.9417575925118915e-02  1.9544201255128346e-02 
 1.9671652330548118e-02  1.9799934536205117e-02  1.9929053292041619e-02  2.0059014053344260e-02 
 2.0189822310974548e-02  2.0321483591600818e-02  2.0454003457931764e-02  2.0587387508951449e-02 
 2.0721641380155875e-02  2.0856770743791071e-02  2.0992781309092746e-02  2.1129678822527521e-02 
 2.1267469068035703e-02  2.1406157867275660e-02  2.1545751079869793e-02  2.1686254603652116e-02 
 2.1827674374917370e-02  2.1970016368671953e-02  2.2113286598886266e-02  2.2257491118748859e-02 
 2.2402636020922139e-02  2.2548727437799815e-02  2.2695771541765983e-02  2.2843774545455914e-02 
 2.2992742702018523e-02  2.3142682305380587e-02  2.3293599690512652e-02  2.3445501233696691e-02 
 2.3598393352795500e-02  2.3752282507523852e-02  2.3907175199721430e-02  2.4063077973627514e-02 
 2.4219997416157501e-02  2.4377940157181192e-02  2.4536912869802859e-02  2.4696922270643275e-02 
 2.4857975120123423e-02  2.5020078222750153e-02  2.5183238427403672e-02  2.5347462627626889e-02 
 2.5512757761916693e-02  2.5679130814017102e-02  2.5846588813214312e-02  2.6015138834633699e-02 
 2.6184787999538744e-02  2.6355543475631904e-02  2.6527412477357435e-02  2.6700402266206229e-02 
 2.6874520151022596e-02  2.7049773488313080e-02  2.7226169682557241e-02  2.7403716186520561e-02 
 2.7582420501569185e-02  2.7762290177987037e-02  2.7943332815294698e-02  2.8125556062570525e-02 
 2.8308967618773825e-02  2.8493575233070133e-02  2.8679386705158613e-02  2.8866409885601598e-02 
 2.9054652676156281e-02  2.9244123030108576e-02  2.9434828952609109e-02  2.9626778501011482e-02 
 2.9819979785212666e-02  3.0014440967995659e-02  3.0210170265374359e-02  3.0407175946940701e-02 
 3.0605466336214030e-02  3.0805049810992823e-02  3.1005934803708522e-02  3.1208129801781979e-02 
 3.1411643347981931e-02  3.1616484040786000e-02  3.1822660534743911e-02  3.2030181540843201e-02 
 3.2239055826877264e-02  3.2449292217815742e-02  3.2660899596177434e-02  3.2873886902405544e-02 
 3.3088263135245453e-02  3.3304037352124886e-02  3.3521218669536598e-02  3.3739816263423567e-02 
 3.3959839369566640e-02  3.4181297283974794e-02  3.4404199363277842e-02  3.4628555025121834e-02 
 3.4854373748566793e-02  3.5081665074487400e-02  3.5310438605975998e-02  3.5540704008748314e-02 
 3.5772471011551878e-02  3.6005749406577026e-02  3.6240549049870653e-02  3.6476879861752604e-02 
 3.6714751827234861e-02  3.6954174996443330e-02  3.7195159485042532e-02  3.7437715474662965e-02 
 3.7681853213331257e-02  3.7927583015903203e-02  3.8174915264499495e-02  3.8423860408944438e-02 
 3.8674428967207422e-02  3.8926631525847334e-02  3.9180478740459719e-02  3.9435981336127204e-02 
 3.9693150107872451e-02  3.9951995921114335e-02  4.0212529712126951e-02  4.0474762488501743e-02 
 4.0738705329612518e-02  4.1004369387083565e-02  4.1271765885260839e-02  4.1540906121686171e-02 