  <PP_INFO>

############################################################
#    Opium Parameter File                                  #
############################################################
#-----------------------------------------------------------
#Command line   : /usr/local/bin/opium s s.log all ke upf rpt upf plot wp 
 
#Opium version  : 3.8 
#Compile Host   : vagvlan567.217.wlan.design.upenn.edu 
#Compile OS     : Darwin 14.1.0 i386 
#Compile Date   : Wed Mar 18 18:57:27 EDT 2015 
#-----------------------------------------------------------
#Execution Host : vet-complex.0707.apn.wlan.wireless-pennnet.upenn.edu 
#Execution Date : Tue Oct 13 19:27:17 2015
 
#-----------------------------------------------------------
############################################################
[Atom]
S                 # chemical symbol (max. 2 characters)
7                 # norb: number of orbitals
100 2.00  -       # reference configuration
200 2.00  -       # reference configuration
210 6.00  -       # reference configuration
300 2.00  -       # reference configuration
310 3.00  -       # reference configuration
400 0.00  -
320 0.00  -

[Pseudo]
4  1.58 1.35 1.32 2.67
opt

[XC]
gga
                                                                                                                 
[Optinfo]
7.07  10    # rc[a.u.]  Qc[sqrt(Ry)]  Nb
7.07  10    # rc[a.u.]  Qc[sqrt(Ry)]  Nb
7.07  10    # rc[a.u.]  Qc[sqrt(Ry)]  Nb
7.07  10    # rc[a.u.]  Qc[sqrt(Ry)]  Nb
[Configs]  
1                 # number of valence configurations
#
300 2.00   -1.4   # test configuration
310 3.50   -0.4   # test configuration
400 0.00   -
320 0.00  -

[KBdesign]
0  # local orbital [0..lmax]
0  # number of boxes
au      0.1 1.25 5.79
############################################################
  </PP_INFO>



<PP_HEADER>
   0         Version Number
   S        Element
   NC        Norm - Conserving pseudopotential
    F      Nonlinear Core Correction
SLA  PW   PBE  PBE     PBE  Exchange-Correlation functional
 6          Z valence
 0          Total energy
 0.000000   0.000000     Suggested cutoff for wfc and rho
 2           Max angular momentum component
 1147           Number of points in mesh
 3  2     Number of Wavefuncitons, Number of Projectors
 Wavefunctions         nl  l   occ
                       S  0  2.000000
                       P  1  3.000000
                       D  2  0.000000
</PP_HEADER>
<PP_MESH>
  <PP_R>
 3.9685026299204971e-05  4.0204299604500602e-05  4.0730367532119516e-05  4.1263318988793578e-05 
 4.1803244044587428e-05  4.2350233948120621e-05  4.2904381141988665e-05  4.3465779278386278e-05 
 4.4034523234934701e-05  4.4610709130716253e-05  4.5194434342518692e-05  4.5785797521292153e-05 
 4.6384898608821334e-05  4.6991838854615956e-05  4.7606720833022169e-05  4.8229648460557720e-05 
 4.8860727013474334e-05  4.9500063145549489e-05  5.0147764906111174e-05  5.0803941758298530e-05 
 5.1468704597561329e-05  5.2142165770401613e-05  5.2824439093360495e-05  5.3515639872253475e-05 
 5.4215884921657221e-05  5.4925292584651778e-05  5.5643982752820653e-05  5.6372076886512810e-05 
 5.7109698035369793e-05  5.7856970859121351e-05  5.8614021648653293e-05  5.9380978347350898e-05 
 6.0157970572721727e-05  6.0945129638301091e-05  6.1742588575844630e-05  6.2550482157810818e-05 
 6.3368946920137876e-05  6.4198121185318654e-05  6.5038145085777508e-05  6.5889160587552918e-05 
 6.6751311514290259e-05  6.7624743571548045e-05  6.8509604371422853e-05  6.9406043457495922e-05 
 7.0314212330106396e-05  7.1234264471955284e-05  7.2166355374044387e-05  7.3110642561954596e-05 
 7.4067285622468189e-05  7.5036446230539273e-05  7.6018288176617392e-05  7.7012977394328165e-05 
 7.8020681988516931e-05  7.9041572263658516e-05  8.0075820752639255e-05  8.1123602245915385e-05 
 8.2185093821053086e-05  8.3260474872655032e-05  8.4349927142678510e-05  8.5453634751150021e-05 
 8.6571784227282392e-05  8.7704564540998394e-05  8.8852167134867167e-05  9.0014785956458481e-05 
 9.1192617491120346e-05  9.2385860795185461e-05  9.3594717529612250e-05  9.4819391994066020e-05 
 9.6060091161446202e-05  9.7317024712864882e-05  9.8590405073083992e-05  9.9880447446415137e-05 
 1.0118736985308985e-04  1.0251139316610547e-04  1.0385274114855321e-04  1.0521164049143461e-04 
 1.0658832085197305e-04  1.0798301489242587e-04  1.0939595831940555e-04  1.1082738992371418e-04 
 1.1227755162069982e-04  1.1374668849114079e-04  1.1523504882266488e-04  1.1674288415171057e-04 
 1.1827044930603727e-04  1.1981800244779179e-04  1.2138580511713842e-04  1.2297412227645990e-04 
 1.2458322235513633e-04  1.2621337729491088e-04  1.2786486259584834e-04  1.2953795736289522e-04 
 1.3123294435304930e-04  1.3295011002314617e-04  1.3468974457827117e-04  1.3645214202080439e-04 
 1.3823760020010846e-04  1.4004642086286518e-04  1.4187890970407177e-04  1.4373537641870388e-04 
 1.4561613475405486e-04  1.4752150256275973e-04  1.4945180185651317e-04  1.5140735886049012e-04 
 1.5338850406847865e-04  1.5539557229873435e-04  1.5742890275056491e-04  1.5948883906165634e-04 
 1.6157572936614805e-04  1.6368992635346850e-04  1.6583178732794055e-04  1.6800167426916671e-04 
 1.7019995389320477e-04  1.7242699771454295e-04  1.7468318210888786e-04  1.7696888837677202e-04 
 1.7928450280799493e-04  1.8163041674690688e-04  1.8400702665854698e-04  1.8641473419564691e-04 
 1.8885394626651103e-04  1.9132507510378482e-04  1.9382853833412335e-04  1.9636475904877119e-04 
 1.9893416587506523e-04  2.0153719304887472e-04  2.0417428048798746e-04  2.0684587386645724e-04 
 2.0955242468992364e-04  2.1229439037191765e-04  2.1507223431116592e-04  2.1788642596990530e-04 
 2.2073744095322436e-04  2.2362576108944098e-04  2.2655187451153268e-04  2.2951627573963219e-04 
 2.3251946576460263e-04  2.3556195213270611e-04  2.3864424903138028e-04  2.4176687737613713e-04 
 2.4493036489859910e-04  2.4813524623568714e-04  2.5138206301997463e-04  2.5467136397122619e-04 
 2.5800370498913134e-04  2.6137964924725340e-04  2.6479976728820712e-04  2.6826463712008162e-04 
 2.7177484431412547e-04  2.7533098210370853e-04  2.7893365148458154e-04  2.8258346131644450e-04 
 2.8628102842584587e-04  2.9002697771042784e-04  2.9382194224453505e-04  2.9766656338620626e-04 
 3.0156149088556499e-04  3.0550738299462885e-04  3.0950490657855598e-04  3.1355473722834647e-04 
 3.1765755937501945e-04  3.2181406640528228e-04  3.2602496077871614e-04  3.3029095414649262e-04 
 3.3461276747164453e-04  3.3899113115090965e-04  3.4342678513817092e-04  3.4792047906950953e-04 
 3.5247297238989527e-04  3.5708503448153469e-04  3.6175744479389842e-04  3.6649099297545004e-04 
 3.7128647900709849e-04  3.7614471333739693e-04  3.8106651701951016e-04  3.8605272184997488e-04 
 3.9110417050927508e-04  3.9622171670425707e-04  4.0140622531240847e-04  4.0665857252802299e-04 
 4.1197964601028144e-04  4.1737034503326706e-04  4.2283158063794547e-04  4.2836427578613138e-04 
 4.3396936551647362e-04  4.3964779710247716e-04  4.4540053021259533e-04  4.5122853707241575e-04 
 4.5713280262896900e-04  4.6311432471718683e-04  4.6917411422853873e-04  4.7531319528187508e-04 
 4.8153260539650545e-04  4.8783339566754199e-04  4.9421663094353701e-04  5.0068339000644492e-04 
 5.0723476575393928e-04  5.1387186538411338e-04  5.2059581058260212e-04  5.2740773771214780e-04 
 5.3430879800464863e-04  5.4130015775571852e-04  5.4838299852179577e-04  5.5555851731982787e-04 
 5.6282792682957002e-04  5.7019245559853120e-04  5.7765334824960181e-04  5.8521186569139745e-04 
 5.9286928533135576e-04  6.0062690129162135e-04  6.0848602462775534e-04  6.1644798355030706e-04 
 6.2451412364928455e-04  6.3268580812156285e-04  6.4096441800126766e-04  6.4935135239317144e-04 
 6.5784802870914871e-04  6.6645588290771985e-04  6.7517636973673232e-04  6.8401096297921490e-04 
 6.9296115570245318e-04  7.0202846051031981e-04  7.1121440979890829e-04  7.2052055601551184e-04 
 7.2994847192099069e-04  7.3949975085557218e-04  7.4917600700812916e-04  7.5897887568898194e-04 
 7.6891001360626925e-04  7.7897109914593630e-04  7.8916383265538557e-04  7.9948993673083983e-04 
 8.0995115650846574e-04  8.2054925995930295e-04  8.3128603818805990e-04  8.4216330573581182e-04 
 8.5318290088666395e-04  8.6434668597842315e-04  8.7565654771734126e-04  8.8711439749697104e-04 
 8.9872217172119577e-04  9.1048183213148718e-04  9.2239536613844368e-04  9.3446478715766769e-04 
 9.4669213495003797e-04  9.5907947596643364e-04  9.7162890369696968e-04  9.8434253902480117e-04 
 9.9722253058455836e-04  1.0102710551254705e-03  1.0234903178792424e-03  1.0368825529327411e-03 
 1.0504500236055664e-03  1.0641950228325533e-03  1.0781198735512873e-03  1.0922269290946801e-03 
 1.1065185735886955e-03  1.1209972223552686e-03  1.1356653223205018e-03  1.1505253524282002e-03 
 1.1655798240588209e-03  1.1808312814539001e-03  1.1962823021460377e-03  1.2119354973945061e-03 
 1.2277935126265575e-03  1.2438590278845102e-03  1.2601347582786801e-03  1.2766234544462417e-03 
 1.2933279030160924e-03  1.3102509270797979e-03  1.3273953866687041e-03  1.3447641792372865e-03 
 1.3623602401528294e-03  1.3801865431915068e-03  1.3982461010409611e-03  1.4165419658094523e-03 
 1.4350772295416720e-03  1.4538550247413077e-03  1.4728785249004397e-03  1.4921509450358732e-03 
 1.5116755422324812e-03  1.5314556161936613e-03  1.5514945097989902e-03  1.5717956096691819e-03 
 1.5923623467384333e-03  1.6131981968342600e-03  1.6343066812649202e-03  1.6556913674145215e-03 
 1.6773558693459214e-03  1.6993038484115100e-03  1.7215390138719884e-03  1.7440651235232398e-03 
 1.7668859843314104e-03  1.7900054530762925e-03  1.8134274370031308e-03  1.8371558944829561e-03 
 1.8611948356815570e-03  1.8855483232372116e-03  1.9102204729472810e-03  1.9352154544637888e-03 
 1.9605374919980999e-03  1.9861908650348277e-03  2.0121799090550728e-03  2.0385090162691314e-03 
 2.0651826363587886e-03  2.0922052772293243e-03  2.1195815057713624e-03  2.1473159486326849e-03 
 2.1754132930001465e-03  2.2038782873918185e-03  2.2327157424595055e-03  2.2619305318017460e-03 
 2.2915275927874743e-03  2.3215119273904405e-03  2.3518886030345592e-03  2.3826627534503132e-03 
 2.4138395795423677e-03  2.4454243502685371e-03  2.4774224035302482e-03  2.5098391470746630e-03 
 2.5426800594085912e-03  2.5759506907243840e-03  2.6096566638379214e-03  2.6438036751388824e-03 
 2.6783974955534502e-03  2.7134439715196120e-03  2.7489490259752195e-03  2.7849186593589814e-03 
 2.8213589506245534e-03  2.8582760582678860e-03  2.8956762213680392e-03  2.9335657606415931e-03 
 2.9719510795108658e-03  3.0108386651861068e-03  3.0502350897618513e-03  3.0901470113276204e-03 
 3.1305811750931526e-03  3.1715444145283649e-03  3.2130436525182114e-03  3.2550859025326888e-03 
 3.2976782698121133e-03  3.3408279525679297e-03  3.3845422431992233e-03  3.4288285295251556e-03 
 3.4736942960335217e-03  3.5191471251456454e-03  3.5651946984978328e-03  3.6118447982395716e-03 
 3.6591053083487525e-03  3.7069842159640691e-03  3.7554896127348649e-03  3.8046296961886409e-03 
 3.8544127711164600e-03  3.9048472509764730e-03  3.9559416593158156e-03  4.0077046312111094e-03 
 4.0601449147277995e-03  4.1132713723986154e-03  4.1670929827213512e-03  4.2216188416762512e-03 
 4.2768581642632555e-03  4.3328202860593570e-03  4.3895146647963332e-03  4.4469508819591306e-03 
 4.5051386444051556e-03  4.5640877860047471e-03  4.6238082693031432e-03  4.6843101872041633e-03 
 4.7456037646759321e-03  4.8076993604789274e-03  4.8706074689166328e-03  4.9343387216091023e-03 
 4.9989038892897276e-03  5.0643138836255217e-03  5.1305797590612007e-03  5.1977127146874379e-03 
 5.2657240961335164e-03  5.3346253974847734e-03  5.4044282632251302e-03  5.4751444902050340e-03 
 5.5467860296351569e-03  5.6193649891061745e-03  5.6928936346349887e-03  5.7673843927376891e-03 
 5.8428498525296942e-03  5.9193027678533256e-03  5.9967560594332368e-03  6.0752228170600523e-03 
 6.1547163018025684e-03  6.2352499482489091e-03  6.3168373667770025e-03  6.3994923458547707e-03 
 6.4832288543703936e-03  6.5680610439931173e-03  6.6540032515648960e-03  6.7410700015233613e-03 
 6.8292760083564826e-03  6.9186361790893533e-03  7.0091656158035136e-03  7.1008796181892368e-03 
 7.1937936861312208e-03  7.2879235223280801e-03  7.3832850349461751e-03  7.4798943403081089e-03 
 7.5777677656164270e-03  7.6769218517129551e-03  7.7773733558742387e-03  7.8791392546435652e-03 
 7.9822367467000423e-03  8.0866832557652136e-03  8.1924964335476896e-03  8.2996941627263704e-03 
 8.4082945599726257e-03  8.5183159790120713e-03  8.6297770137263863e-03  8.7426965012957249e-03 
 8.8570935253822463e-03  8.9729874193552970e-03  9.0903977695588039e-03  9.2093444186213853e-03 
 9.3298474688098439e-03  9.4519272854264712e-03  9.5756045002508370e-03  9.7009000150266103e-03 
 9.8278350049940018e-03  9.9564309224684372e-03  1.0086709500466038e-02  1.0218692756376572e-02 
 1.0352402995684400e-02  1.0487862815738221e-02  1.0625095109570029e-02  1.0764123069764108e-02 
 1.0904970192376632e-02  1.1047660280906552e-02  1.1192217450318445e-02  1.1338666131118003e-02 
 1.1487031073480852e-02  1.1637337351435354e-02  1.1789610367100236e-02  1.1943875854977573e-02 
 1.2100159886301981e-02  1.2258488873446724e-02  1.2418889574387469e-02  1.2581389097224446e-02 
 1.2746014904763774e-02  1.2912794819158770e-02  1.3081757026611891e-02  1.3252930082138358e-02 
 1.3426342914391962e-02  1.3602024830554093e-02  1.3780005521286724e-02  1.3960315065750196e-02 
 1.4142983936686681e-02  1.4328043005570137e-02  1.4515523547823674e-02  1.4705457248105132e-02 
 1.4897876205661931e-02  1.5092812939755873e-02  1.5290300395158989e-02  1.5490371947721279e-02 
 1.5693061410011321e-02  1.5898403037030655e-02  1.6106431532002988e-02  1.6317182052239108e-02 
 1.6530690215078511e-02  1.6746992103908908e-02  1.6966124274264326e-02  1.7188123760003112e-02 
 1.7413028079566736e-02  1.7640875242320497e-02  1.7871703754977198e-02  1.8105552628104878e-02 
 1.8342461382719690e-02  1.8582470056964995e-02  1.8825619212878005e-02  1.9071949943244789e-02 
 1.9321503878545063e-02  1.9574323193987862e-02  1.9830450616639229e-02  2.0089929432643195e-02 
 2.0352803494537254e-02  2.0619117228663553e-02  2.0888915642676968e-02  2.1162244333151638e-02 
 2.1439149493286798e-02  2.1719677920713571e-02  2.2003877025403882e-02  2.2291794837682843e-02 
 2.2583480016345997e-02  2.2878981856882783e-02  2.3178350299807596e-02  2.3481635939099767e-02 
 2.3788890030754212e-02  2.4100164501443717e-02  2.4415511957294685e-02  2.4734985692777718e-02 
 2.5058639699714488e-02  2.5386528676402498e-02  2.5718708036859213e-02  2.6055233920187198e-02 
 2.6396163200061645e-02  2.6741553494342322e-02  2.7091463174811030e-02  2.7445951377036586e-02 
 2.7805078010368876e-02  2.8168903768063698e-02  2.8537490137540037e-02  2.8910899410771608e-02 
 2.9289194694814360e-02  2.9672439922471629e-02  3.0060699863099075e-02  3.0454040133550755e-02 
 3.0852527209268569e-02  3.1256228435516752e-02  3.1665212038763380e-02  3.2079547138210825e-02 
 3.2499303757477054e-02  3.2924552836429817e-02  3.3355366243175526e-02  3.3791816786205332e-02 
 3.4233978226699796e-02  3.4681925290994751e-02  3.5135733683210227e-02  3.5595480098044606e-02 
 3.6061242233736246e-02  3.6533098805194626e-02  3.7011129557303429e-02  3.7495415278397455e-02 
 3.7986037813916247e-02  3.8483080080236029e-02  3.8986626078682828e-02  3.9496760909728867e-02 
 4.0013570787374761e-02  4.0537143053719887e-02  4.1067566193723419e-02  4.1604929850158505e-02 
 4.2149324838761992e-02  4.2700843163582698e-02  4.3259578032530187e-02  4.3825623873127155e-02 
 4.4399076348467903e-02  4.4980032373385638e-02  4.5568590130831310e-02  4.6164849088466742e-02 
 4.6768910015474972e-02  4.7380874999590310e-02  4.8000847464351640e-02  4.8628932186581104e-02 
 4.9265235314091667e-02  4.9909864383626337e-02  5.0562928339032150e-02  5.1224537549671913e-02 
 5.1894803829076928e-02  5.2573840453843758e-02  5.3261762182778068e-02  5.3958685276289414e-02 
 5.4664727516039346e-02  5.5380008224846823e-02  5.6104648286854075e-02  5.6838770167956305e-02 
 5.7582497936498681e-02  5.8335957284244247e-02  5.9099275547616119e-02  5.9872581729217486e-02 
 6.0656006519633626e-02  6.1449682319518743e-02  6.2253743261972048e-02  6.3068325235206557e-02 
 6.3893565905514538e-02  6.4729604740533409e-02  6.5576583032816160e-02  6.6434643923710124e-02 
 6.7303932427548022e-02  6.8184595456156030e-02  6.9076781843682072e-02  6.9980642371749127e-02 
 7.0896329794937693e-02  7.1823998866601735e-02  7.2763806365022290e-02  7.3715911119903429e-02 
 7.4680474039214906e-02  7.5657658136385697e-02  7.6647628557854092e-02  7.7650552610977516e-02 
 7.8666599792308042e-02  7.9695941816237570e-02  8.0738752644018100e-02  8.1795208513161508e-02 
 8.2865487967224150e-02  8.3949771885981211e-02  8.5048243515995506e-02  8.6161088501587046e-02 
 8.7288494916207077e-02  8.8430653294223019e-02  8.9587756663119189e-02  9.0760000576118952e-02 
 9.1947583145233658e-02  9.3150705074744058e-02  9.4369569695119865e-02  9.5604382997382761e-02 
 9.6855353667919891e-02  9.8122693123752019e-02  9.9406615548263563e-02  1.0070733792740012e-01 
 1.0202508008633963e-01  1.0336006472664327e-01  1.0471251746389268e-01  1.0608266686581951e-01 
 1.0747074449093356e-01  1.0887698492765736e-01  1.1030162583397168e-01  1.1174490797758049e-01 
 1.1320707527660120e-01  1.1468837484078745e-01  1.1618905701329121e-01  1.1770937541297143e-01 
 1.1924958697725613e-01  1.2080995200556553e-01  1.2239073420330325e-01  1.2399220072642313e-01 
 1.2561462222657940e-01  1.2725827289686673e-01  1.2892343051816060e-01  1.3061037650606230e-01 
 1.3231939595845885e-01  1.3405077770370535e-01  1.3580481434943759e-01  1.3758180233202347e-01 
 1.3938204196666146e-01  1.4120583749813456e-01  1.4305349715222840e-01  1.4492533318782214e-01 
 1.4682166194966093e-01  1.4874280392181896e-01  1.5068908378186205e-01  1.5266083045571888e-01 
 1.5465837717327025e-01  1.5668206152466579e-01  1.5873222551737778e-01  1.6080921563399997e-01 
 1.6291338289080579e-01  1.6504508289706976e-01  1.6720467591516661e-01  1.6939252692145643e-01 
 1.7160900566796658e-01  1.7385448674488063e-01  1.7612934964384508e-01  1.7843397882210424e-01 
 1.8076876376747444e-01  1.8313409906416850e-01  1.8553038445948128e-01  1.8795802493134797e-01 
 1.9041743075678635e-01  1.9290901758123452e-01  1.9543320648879606e-01  1.9799042407340411e-01 
 2.0058110251091732e-01  2.0320567963215694e-01  2.0586459899690354e-01  2.0855830996885832e-01 
 2.1128726779158677e-01  2.1405193366545613e-01  2.1685277482557927e-01  2.1969026462077854e-01 
 2.2256488259358276e-01  2.2547711456127129e-01  2.2842745269797798e-01  2.3141639561787009e-01 
 2.3444444845941501e-01  2.3751212297075006e-01  2.4061993759616895e-01  2.4376841756374037e-01 
 2.4695809497407245e-01  2.5018950889023933e-01  2.5346320542888434e-01  2.5677973785251329e-01 
 2.6013966666299998e-01  2.6354355969631027e-01  2.6699199221846842e-01  2.7048554702277827e-01 
 2.7402481452831673e-01  2.7761039287971601e-01  2.8124288804825159e-01  2.8492291393425256e-01 
 2.8865109247085258e-01  2.9242805372909764e-01  2.9625443602443002e-01  3.0013088602456472e-01 
 3.0405805885877812e-01  3.0803661822862621e-01  3.1206723652011198e-01  3.1615059491731978e-01 
 3.2028738351753822e-01  3.2447830144788548e-01  3.2872405698346718e-01  3.3302536766707419e-01 
 3.3738296043044952e-01  3.4179757171714165e-01  3.4626994760696528e-01  3.5080084394209043e-01 
 3.5539102645478177e-01  3.6004127089680898e-01  3.6475236317055082e-01  3.6952509946181433e-01 
 3.7436028637439245e-01  3.7925874106638152e-01  3.8422129138828326e-01  3.8924877602291352e-01 
 3.9434204462714134e-01  3.9950195797548338e-01  4.0472938810557735e-01  4.1002521846555551e-01 
 4.1539034406335401e-01  4.2082567161796847e-01  4.2633211971269214e-01  4.3191061895035893e-01 
 4.3756211211061741e-01  4.4328755430926275e-01  4.4908791315965363e-01  4.5496416893624114e-01 
 4.6091731474023762e-01  4.6694835666745299e-01  4.7305831397832743e-01  4.7924821927018874e-01 
 4.8551911865176384e-01  4.9187207191997356e-01  4.9830815273904089e-01  5.0482844882194267e-01 
 5.1143406211423692e-01  5.1812610898028999e-01  5.2490572039195105e-01  5.3177404211968482e-01 
 5.3873223492621036e-01  5.4578147476267336e-01  5.5292295296738392e-01  5.6015787646715609e-01 
 5.6748746798128114e-01  5.7491296622817001e-01  5.8243562613470001e-01  5.9005671904829993e-01 
 5.9777753295181102e-01  6.0559937268115938e-01  6.1352356014587595e-01  6.2155143455250250e-01 
 6.2968435263092104e-01  6.3792368886364392e-01  6.4627083571810595e-01  6.5472720388199035e-01 
 6.6329422250164483e-01  6.7197333942360649e-01  6.8076602143929232e-01  6.8967375453289048e-01 
 6.9869804413249481e-01  7.0784041536452647e-01  7.1710241331148350e-01  7.2648560327306322e-01 
 7.3599157103070212e-01  7.4562192311557640e-01  7.5537828708010946e-01  7.6526231177303239e-01 
 7.7527566761804334e-01  7.8542004689611289e-01  7.9569716403148349e-01  8.0610875588141173e-01 
 8.1665658202970215e-01  8.2734242508407585e-01  8.3816809097744371e-01  8.4913540927310793e-01 
 8.6024623347396378e-01  8.7150244133574595e-01  8.8290593518437388e-01  8.9445864223744964e-01 
 9.0616251492996158e-01  9.1801953124425106e-01  9.3003169504429617e-01  9.4220103641436925e-01 
 9.5452961200212583e-01  9.6701950536618364e-01  9.7967282732824834e-01  9.9249171632984756e-01 
 1.0054783387937329e+00  1.0186348894900101e+00  1.0319635919070624e+00  1.0454666986273184e+00 
 1.0591464917079543e+00  1.0730052830665600e+00  1.0870454148718605e+00  1.1012692599395473e+00 
 1.1156792221332914e+00  1.1302777367710004e+00  1.1450672710363941e+00  1.1600503243959639e+00 
 1.1752294290213885e+00  1.1906071502174775e+00  1.2061860868557135e+00  1.2219688718134676e+00 
 1.2379581724189623e+00  1.2541566909020561e+00  1.2705671648509265e+00  1.2871923676747297e+00 
 1.3040351090723143e+00  1.3210982355070597e+00  1.3383846306879472e+00  1.3558972160569061e+00 
 1.3736389512825451e+00  1.3916128347603445e+00  1.4098219041193913e+00  1.4282692367357470e+00 
 1.4469579502525300e+00  1.4658912031068057e+00  1.4850721950633692e+00  1.5045041677555138e+00 
 1.5241904052328745e+00  1.5441342345164404e+00  1.5643390261608283e+00  1.5848081948239157e+00 
 1.6055451998439250e+00  1.6265535458240608e+00  1.6478367832247987e+00  1.6693985089639096e+00 
 1.6912423670243655e+00  1.7133720490701687e+00  1.7357912950702561e+00  1.7585038939305617e+00 
 1.7815136841343509e+00  1.8048245543909336e+00  1.8284404442928655e+00  1.8523653449817479e+00 
 1.8766032998227409e+00  1.9011584050879016e+00  1.9260348106484628e+00  1.9512367206761729e+00 
 1.9767683943538095e+00  2.0026341465949917e+00  2.0288383487734118e+00  2.0553854294616056e+00 
 2.0822798751793989e+00  2.1095262311521208e+00  2.1371291020787844e+00  2.1650931529102730e+00 
 2.1934231096377346e+00  2.2221237600912844e+00  2.2511999547491590e+00  2.2806566075574599e+00 
 2.3104986967606216e+00  2.3407312657427459e+00  2.3713594238799476e+00  2.4023883474038499e+00 
 2.4338232802763802e+00  2.4656695350760121e+00  2.4979324938956036e+00  2.5306176092519848e+00 
 2.5637304050074441e+00  2.5972764773032759e+00  2.6312614955055462e+00  2.6656912031632092e+00 
 2.7005714189788095e+00  2.7359080377918388e+00  2.7717070315749801e+00  2.8079744504433890e+00 
 2.8447164236771734e+00  2.8819391607572595e+00  2.9196489524148079e+00  2.9578521716943609e+00 
 2.9965552750309050e+00  3.0357648033410203e+00  3.0754873831283147e+00  3.1157297276033149e+00 
 3.1564986378180180e+00  3.1978010038152851e+00  3.2396438057932722e+00  3.2820341152851040e+00 
 3.3249790963539838e+00  3.3684860068039137e+00  3.4125621994063158e+00  3.4572151231426456e+00 
 3.5024523244632930e+00  3.5482814485629501e+00  3.5947102406726676e+00  3.6417465473688164e+00 
 3.6893983178991800e+00  3.7376736055263935e+00  3.7865805688889655e+00  3.8361274733801083e+00 
 3.8863226925446064e+00  3.9371747094939686e+00  3.9886921183400919e+00  4.0408836256476874e+00 
 4.0937580519057120e+00  4.1473243330180489e+00  4.2015915218137057e+00  4.2565687895767361e+00 
 4.3122654275962509e+00  4.3686908487366383e+00  4.4258545890283685e+00  4.4837663092796074e+00 
 4.5424357967089115e+00  4.6018729665992959e+00  4.6620878639739392e+00  4.7230906652938138e+00 
 4.7848916801775356e+00  4.8475013531437128e+00  4.9109302653760931e+00  4.9751891365118110e+00 
 5.0402888264530308e+00  5.1062403372022960e+00  5.1730548147218949e+00  5.2407435508175526e+00 
 5.3093179850467846e+00  5.3787897066521708e+00  5.4491704565200205e+00  5.5204721291645749e+00 
 5.5927067747382164e+00  5.6658866010679709e+00  5.7400239757186649e+00  5.8151314280830677e+00 
 5.8912216514993911e+00  5.9683075053964965e+00  6.0464020174671624e+00  6.1255183858698024e+00 
 6.2056699814589802e+00  6.2868703500451195e+00  6.3691332146837762e+00  6.4524724779948679e+00 
 6.5369022245122492e+00  6.6224367230640331e+00  6.7090904291840658e+00  6.7968779875549039e+00 
 6.8858142344828659e+00  6.9759142004053594e+00  7.0671931124310721e+00  7.1596663969133889e+00 
 7.2533496820574825e+00  7.3482588005615179e+00  7.4444097922924142e+00  7.5418189069966246e+00 
 7.6405026070463755e+00  7.7404775702218522e+00  7.8417606925297827e+00  7.9443690910588991e+00 
 8.0483201068727723e+00  8.1536313079404863e+00  8.2603204921056737e+00  8.3684056900943897e+00 
 8.4779051685623603e+00  8.5888374331820394e+00  8.7012212317701891e+00  8.8150755574562556e+00 
 8.9304196518922669e+00  9.0472730085047086e+00  9.1656553757889743e+00  9.2855867606468934e+00 
 9.4070874317679571e+00  9.5301779230547670e+00  9.6548790370933197e+00  9.7812118486686863e+00 
 9.9091977083267082e+00  1.0038858245982288e+01  1.0170215374574891e+01  1.0303291293771895e+01 
 1.0438108493720376e+01  1.0574689758848002e+01  1.0713058171713680e+01  1.0853237116908470e+01 
 1.0995250285007774e+01  1.1139121676575005e+01  1.1284875606217762e+01  1.1432536706697066e+01 
 1.1582129933090346e+01  1.1733680567008907e+01  1.1887214220870588e+01  1.2042756842228316e+01 
 1.2200334718155306e+01  1.2359974479687642e+01  1.2521703106324980e+01  1.2685547930590150e+01 
 1.2851536642648423e+01  1.3019697294987203e+01  1.3190058307156976e+01  1.3362648470574273e+01 
 1.3537496953387516e+01  1.3714633305406410e+01  1.3894087463096074e+01  1.4075889754636272e+01 
 1.4260070905046982e+01  1.4446662041380995e+01  1.4635694697984453e+01  1.4827200821826240e+01 
 1.5021212777897089e+01  1.5217763354679342e+01  1.5416885769688284e+01  1.5618613675085982e+01 
 1.5822981163368583e+01  1.6030022773128017e+01  1.6239773494889118e+01  1.6452268777023082e+01 
 1.6667544531738358e+01  1.6885637141149864e+01  1.7106583463427707e+01  1.7330420839026161e+01 
 1.7557187096994490e+01  1.7786920561370014e+01  1.8019660057654999e+01  1.8255444919378267e+01 
 1.8494314994742631e+01  1.8736310653359364e+01  1.8981472793070751e+01  1.9229842846861906e+01 
 1.9481462789863066e+01  1.9736375146443478e+01  1.9994622997398125e+01  2.0256249987228468e+01 
 2.0521300331518486e+01  2.0789818824407210e+01  2.1061850846159039e+01  2.1337442370833113e+01 
 2.1616639974053072e+01  2.1899490840878304e+01  2.2186042773778549e+01  2.2476344200712493e+01 
 2.2770444183312229e+01  2.3068392425174807e+01  2.3370239280262240e+01  2.3676035761411473e+01 
 2.3985833548955636e+01  2.4299684999458179e+01  2.4617643154561232e+01  2.4939761749949778e+01 
 2.5266095224433109e+01  2.5596698729145121e+01  2.5931628136864980e+01  2.6270940051459750e+01 
 2.6614691817450595e+01  2.6962941529704182e+01  2.7315748043250647e+01  2.7673170983230545e+01 
 2.8035270754971432e+01  2.8402108554196570e+01  2.8773746377367129e+01  2.9150247032159765e+01 
 2.9531674148081240e+01  2.9918092187221987e+01  3.0309566455150328e+01  3.0706163111949287e+01 
 3.1107949183397803e+01  3.1514992572298244e+01  3.1927362069952135e+01  3.2345127367786056e+01 
 3.2768359069129666e+01  3.3197128701147825e+01  3.3631508726928857e+01  3.4071572557731038e+01 
 3.4517394565389061e+01  3.4969050094883372e+01  3.5426615477073440e+01  3.5890168041597903e+01 
 3.6359786129943473e+01  3.6835549108684809e+01  3.7317537382897683e+01  3.7805832409747609e+01 
 3.8300516712256332e+01  3.8801673893248356e+01  3.9309388649480077e+01  3.9823746785953702e+01 
 4.0344835230418532e+01  4.0872742048061909e+01  4.1407556456392491e+01  4.1949368840318193e+01 
 4.2498270767421459e+01  4.3054355003434502e+01  4.3617715527916573e+01  4.4188447550137241e+01 
 4.4766647525166668e+01  4.5352413170176796e+01  4.5945843480955816e+01  4.6547038748638670e+01 
 4.7156100576656506e+01  4.7773131897907867e+01  4.8398236992154658e+01  4.9031521503645607e+01 
 4.9673092458970430e+01  5.0323058285147589e+01  5.0981528827948686e+01  5.1648615370462679e+01 
 5.2324430651902979e+01  5.3009088886660656e+01  5.3702705783606937e+01  5.4405398565648383e+01 
 5.5117285989537436e+01  5.5838488365943199e+01  5.6569127579783803e+01  5.7309327110825393e+01 
 5.8059212054550450e+01  5.8818909143299273e+01  5.9588546767688001e+01  6.0368254998306980e+01 
 6.1158165607702955e+01  6.1958412092648985e+01  6.2769129696705690e+01  6.3590455433077736e+01 
 6.4422528107769409e+01  6.5265488343043131e+01  6.6119478601185023e+01  6.6984643208581261e+01 
 6.7861128380109676e+01  6.8749082243850509e+01  6.9648654866119898e+01  7.0559998276832204e+01 
 7.1483266495192908e+01  7.2418615555728380e+01  7.3366203534656094e+01  7.4326190576599828e+01 
 7.5298738921654518e+01  7.6284012932805268e+01  7.7282179123704978e+01  7.8293406186815659e+01 
 7.9317865021917797e+01  8.0355728764992833e+01  8.1407172817483556e+01  8.2472374875937390e+01 
 8.3551514962037473e+01  8.4644775453026838e+01  8.5752341112530516e+01  8.6874399121781238e+01 
 8.8011139111252859e+01  8.9162753192709303e+01  9.0329435991671289e+01  9.1511384680308680e+01 
 9.2708799010762974e+01  9.3921881348906012e+01  9.5150836708540169e+01  9.6395872786046269e+01 
 9.7657199995484703e+01  9.8935031504155972e+01  1.0022958326862639e+02  1.0154107407122530e+02 