  <PP_INFO>

############################################################
#    Opium Parameter File                                  #
############################################################
#-----------------------------------------------------------
#Command line   : /usr/local/bin/opium si si.log all ke upf rpt upf plot wp 
 
#Opium version  : 3.8 
#Compile Host   : vagvlan567.217.wlan.design.upenn.edu 
#Compile OS     : Darwin 14.1.0 i386 
#Compile Date   : Wed Mar 18 18:57:27 EDT 2015 
#-----------------------------------------------------------
#Execution Host : vagvlan567.0951.wlan.wireless-pennnet.upenn.edu 
#Execution Date : Tue Oct 13 17:55:05 2015
 
#-----------------------------------------------------------
############################################################
[Atom]
Si
6
100 2.00  -13.0   # reference configuration
200 2.00   -1.4   # reference configuration
210 6.00   -0.4   # reference configuration
300 2.00   -0.1   # reference configuration
310 1.05  -13.0   # reference configuration
320 0.00   -1.4   # reference configuration


[Pseudo]
3 1.85 1.85 1.97
opt

[Optinfo]
7.07 10    # rc[a.u.] qc[sqrt(Ry)] Nb
7.07 10
7.07 10

[XC]
gga

[Configs]
3                 # number of valence configurations
#
300  2.00  -13.0   # nlm occ eigen(- means auto-generate)
310  1.00   -6.0
320  0.00   -6.0
#
300  1.00  -13.0
310  2.00   -6.0
320  0.00   -6.0
#
300  2.00  -13.0
310  0.00   -6.0
320  0.00   -6.0


[KBdesign]
s    # local orbital
1    # number of boxes
au 0.1 1.60  0.001
############################################################
  </PP_INFO>



<PP_HEADER>
   0         Version Number
   Si        Element
   NC        Norm - Conserving pseudopotential
    F      Nonlinear Core Correction
SLA  PW   PBE  PBE     PBE  Exchange-Correlation functional
 4          Z valence
 0          Total energy
 0.000000   0.000000     Suggested cutoff for wfc and rho
 2           Max angular momentum component
 1144           Number of points in mesh
 3  3     Number of Wavefuncitons, Number of Projectors
 Wavefunctions         nl  l   occ
                       S  0  2.000000
                       P  1  1.050000
                       D  2  0.000000
</PP_HEADER>
<PP_MESH>
  <PP_R>
 4.1491326668312178e-05  4.2034235174349549e-05  4.2584247566176941e-05  4.3141456797197635e-05 
 4.3705957037097895e-05  4.4277843687761875e-05  4.4857213399394599e-05  4.5444164086856326e-05 
 4.6038794946210240e-05  4.6641206471486849e-05  4.7251500471667722e-05  4.7869780087891451e-05 
 4.8496149810884738e-05  4.9130715498621592e-05  4.9773584394213616e-05  5.0424865144034168e-05 
 5.1084667816080112e-05  5.1753103918573424e-05  5.2430286418806374e-05  5.3116329762233258e-05 
 5.3811349891811952e-05  5.4515464267598584e-05  5.5228791886598531e-05  5.5951453302877216e-05 
 5.6683570647933914e-05  5.7425267651342495e-05  5.8176669661661843e-05  5.8937903667620119e-05 
 5.9709098319576134e-05  6.0490383951261584e-05  6.1281892601807759e-05  6.2083758038060472e-05 
 6.2896115777187034e-05  6.3719103109578727e-05  6.4552859122053556e-05  6.5397524721362075e-05 
 6.6253242658000929e-05  6.7120157550338113e-05  6.7998415909053774e-05  6.8888166161900870e-05 
 6.9789558678789895e-05  7.0702745797201477e-05  7.1627881847932144e-05  7.2565123181176421e-05 
 7.3514628192950323e-05  7.4476557351860746e-05  7.5451073226225058e-05  7.6438340511545449e-05 
 7.7438526058342937e-05  7.8451798900355482e-05  7.9478330283105119e-05  8.0518293692838635e-05 
 8.1571864885847587e-05  8.2639221918171169e-05  8.3720545175688263e-05  8.4816017404603050e-05 
 8.5925823742329530e-05  8.7050151748780251e-05  8.8189191438064354e-05  8.9343135310600250e-05 
 9.0512178385648934e-05  9.1696518234272509e-05  9.2896355012724282e-05  9.4111891496275504e-05 
 9.5343333113485023e-05  9.6590887980917050e-05  9.7854766938313531e-05  9.9135183584226399e-05 
 1.0043235431211642e-04  1.0174649834692381e-04  1.0307783778211833e-04  1.0442659761723327e-04 
 1.0579300579589090e-04  1.0717729324432567e-04  1.0857969391041102e-04  1.1000044480319741e-04 
 1.1143978603296734e-04  1.1289796085181424e-04  1.1437521569475314e-04  1.1587180022136851e-04 
 1.1738796735800742e-04  1.1892397334052455e-04  1.2048007775758679e-04  1.2205654359454429e-04 
 1.2365363727787564e-04  1.2527162872021458e-04  1.2691079136596586e-04  1.2857140223751802e-04 
 1.3025374198206061e-04  1.3195809491901468e-04  1.3368474908808306e-04  1.3543399629793000e-04 
 1.3720613217549726e-04  1.3900145621596608e-04  1.4082027183337243e-04  1.4266288641188437e-04 
 1.4452961135775138e-04  1.4642076215193230e-04  1.4833665840341249e-04  1.5027762390321846e-04 
 1.5224398667913931e-04  1.5423607905116441e-04  1.5625423768764589e-04  1.5829880366219684e-04 
 1.6037012251133312e-04  1.6246854429287041e-04  1.6459442364508389e-04  1.6674811984664404e-04 
 1.6892999687733492e-04  1.7114042347956778e-04  1.7337977322069950e-04  1.7564842455616611e-04 
 1.7794676089344312e-04  1.8027517065684150e-04  1.8263404735315320e-04  1.8502378963815430e-04 
 1.8744480138397878e-04  1.8989749174737387e-04  1.9238227523884870e-04  1.9489957179272729e-04 
 1.9744980683811874e-04  2.0003341137081546e-04  2.0265082202613268e-04  2.0530248115270108e-04 
 2.0798883688722387e-04  2.1071034323021418e-04  2.1346746012272134e-04  2.1626065352406250e-04 
 2.1909039549057049e-04  2.2195716425537268e-04  2.2486144430921380e-04  2.2780372648233496e-04 
 2.3078450802742651e-04  2.3380429270366420e-04  2.3686359086184561e-04  2.3996291953064092e-04 
 2.4310280250397192e-04  2.4628377042953422e-04  2.4950636089847834e-04  2.5277111853626359e-04 
 2.5607859509470119e-04  2.5942934954520180e-04  2.6282394817324237e-04  2.6626296467407052e-04 
 2.6974698024966027e-04  2.7327658370693612e-04  2.7685237155728311e-04  2.8047494811735872e-04 
 2.8414492561122396e-04  2.8786292427380967e-04  2.9162957245573923e-04  2.9544550672952041e-04 
 2.9931137199712773e-04  3.0322782159899260e-04  3.0719551742441930e-04  3.1121513002344573e-04 
 3.1528733872016821e-04  3.1941283172754880e-04  3.2359230626372476e-04  3.2782646866984032e-04 
 3.3211603452942010e-04  3.3646172878930335e-04  3.4086428588216345e-04  3.4532444985062755e-04 
 3.4984297447302235e-04  3.5442062339076293e-04  3.5905817023741194e-04  3.6375639876942424e-04 
 3.6851610299860389e-04  3.7333808732629433e-04  3.7822316667932373e-04  3.8317216664772967e-04 
 3.8818592362428582e-04  3.9326528494585457e-04  3.9841110903658861e-04  4.0362426555300677e-04 
 4.0890563553096828e-04  4.1425611153456939e-04  4.1967659780698990e-04  4.2516801042331029e-04 
 4.3073127744533321e-04  4.3636733907842647e-04  4.4207714783042095e-04  4.4786166867258467e-04 
 4.5372187920270822e-04  4.5965876981031889e-04  4.6567334384405994e-04  4.7176661778125826e-04 
 4.7793962139971178e-04  4.8419339795172437e-04  4.9052900434041786e-04  4.9694751129835139e-04 
 5.0345000356847767e-04  5.1003758008746653e-04  5.1671135417142905e-04  5.2347245370406952e-04 
 5.3032202132730153e-04  5.3726121463435503e-04  5.4429120636541556e-04  5.5141318460581745e-04 
 5.5862835298683500e-04  5.6593793088909636e-04  5.7334315364866489e-04  5.8084527276581230e-04 
 5.8844555611652506e-04  5.9614528816677882e-04  6.0394577018961623e-04  6.1184832048506526e-04 
 6.1985427460293423e-04  6.2796498556852421e-04  6.3618182411129276e-04  6.4450617889651055e-04 
 6.5293945675994861e-04  6.6148308294563835e-04  6.7013850134674019e-04  6.7890717474956353e-04 
 6.8779058508078425e-04  6.9679023365789184e-04  7.0590764144291634e-04  7.1514434929947251e-04 
 7.2450191825317305e-04  7.3398192975544297e-04  7.4358598595078971e-04  7.5331570994756868e-04 
 7.6317274609229299e-04  7.7315876024753184e-04  7.8327544007344529e-04  7.9352449531300241e-04 
 8.0390765808093238e-04  8.1442668315645614e-04  8.2508334827984756e-04  8.3587945445287657e-04 
 8.4681682624318272e-04  8.5789731209262924e-04  8.6912278462969797e-04  8.8049514098596543e-04 
 8.9201630311672403e-04  9.0368821812579351e-04  9.1551285859459174e-04  9.2749222291550163e-04 
 9.3962833562960546e-04  9.5192324776883705e-04  9.6437903720261091e-04  9.7699780898898741e-04 
 9.8978169573043237e-04  1.0027328579342320e-03  1.0158534843776237e-03  1.0291457924777047e-03 
 1.0426120286661810e-03  1.0562544687690194e-03  1.0700754183910687e-03  1.0840772133057079e-03 
 1.0982622198496045e-03  1.1126328353226261e-03  1.1271914883929919e-03  1.1419406395077199e-03 
 1.1568827813084538e-03  1.1720204390527221e-03  1.1873561710407121e-03  1.2028925690476307e-03 
 1.2186322587617190e-03  1.2345779002280004e-03  1.2507321882978353e-03  1.2670978530843564e-03 
 1.2836776604238638e-03  1.3004744123432600e-03  1.3174909475335980e-03  1.3347301418298243e-03 
 1.3521949086968074e-03  1.3698881997217141e-03  1.3878130051128404e-03  1.4059723542049600e-03 
 1.4243693159712908e-03  1.4430069995421573e-03  1.4618885547304423e-03  1.4810171725639133e-03 
 1.5003960858245115e-03  1.5200285695947024e-03  1.5399179418109695e-03  1.5600675638245563e-03 
 1.5804808409695410e-03  1.6011612231383477e-03  1.6221122053647825e-03  1.6433373284147081e-03 
 1.6648401793844373e-03  1.6866243923069637e-03  1.7086936487661194e-03  1.7310516785187721e-03 
 1.7537022601251653e-03  1.7766492215875005e-03  1.7998964409968816e-03  1.8234478471887184e-03 
 1.8473074204067121e-03  1.8714791929755248e-03  1.8959672499822521e-03  1.9207757299668127e-03 
 1.9459088256213689e-03  1.9713707844989060e-03  1.9971659097310769e-03  2.0232985607554414e-03 
 2.0497731540522193e-03  2.0765941638906898e-03  2.1037661230853531e-03  2.1312936237619846e-03 
 2.1591813181337182e-03  2.1874339192872751e-03  2.2160562019794966e-03  2.2450530034442803e-03 
 2.2744292242100899e-03  2.3041898289281526e-03  2.3343398472115006e-03  2.3648843744849797e-03 
 2.3958285728464010e-03  2.4271776719389368e-03  2.4589369698349477e-03  2.4911118339313691e-03 
 2.5237077018568114e-03  2.5567300823905363e-03  2.5901845563934506e-03  2.6240767777512869e-03 
 2.6584124743301179e-03  2.6931974489443891e-03  2.7284375803376024e-03  2.7641388241758384e-03 
 2.8003072140542775e-03  2.8369488625168944e-03  2.8740699620894887e-03  2.9116767863262417e-03 
 2.9497756908699580e-03  2.9883731145261805e-03  3.0274755803513754e-03  3.0670896967553338e-03 
 3.1072221586180143e-03  3.1478797484209907e-03  3.1890693373937086e-03  3.2307978866747389e-03 
 3.2730724484882298e-03  3.3159001673357465e-03  3.3592882812037038e-03  3.4032441227866148e-03 
 3.4477751207263275e-03  3.4928888008674808e-03  3.5385927875293947e-03  3.5848948047945937e-03 
 3.6318026778141997e-03  3.6793243341303977e-03  3.7274678050162151e-03  3.7762412268328104e-03 
 3.8256528424045607e-03  3.8757110024121013e-03  3.9264241668036156e-03  3.9778009062245902e-03 
 4.0298499034662674e-03  4.0825799549330626e-03  4.1359999721291771e-03  4.1901189831646648e-03 
 4.2449461342811924e-03  4.3004906913977963e-03  4.3567620416768297e-03  4.4137696951104220e-03 
 4.4715232861276873e-03  4.5300325752229646e-03  4.5893074506053715e-03  4.6493579298699265e-03 
 4.7101941616905551e-03  4.7718264275352232e-03  4.8342651434035528e-03  4.8975208615871365e-03 
 4.9616042724529019e-03  5.0265262062498105e-03  5.0922976349391932e-03  5.1589296740490427e-03 
 5.2264335845525565e-03  5.2948207747712831e-03  5.3641028023031266e-03  5.4342913759756429e-03 
 5.5053983578248391e-03  5.5774357650998866e-03  5.6504157722940748e-03  5.7243507132023154e-03 
 5.7992530830055971e-03  5.8751355403826883e-03  5.9520109096495013e-03  6.0298921829264008e-03 
 6.1087925223339426e-03  6.1887252622172756e-03  6.2697039113996881e-03  6.3517421554656287e-03 
 6.4348538590736038e-03  6.5190530682993379e-03  6.6043540130095914e-03  6.6907711092670510e-03 
 6.7783189617666518e-03  6.8670123663038480e-03  6.9568663122751015e-03  7.0478959852111455e-03 
 7.1401167693433644e-03  7.2335442502037706e-03  7.3281942172589969e-03  7.4240826665787499e-03 
 7.5212258035391973e-03  7.6196400455616816e-03  7.7193420248873454e-03  7.8203485913879954e-03 
 7.9226768154137782e-03  8.0263439906781021e-03  8.1313676371803246e-03  8.2377655041666730e-03 
 8.3455555731299039e-03  8.4547560608482317e-03  8.5653854224639735e-03  8.6774623546025560e-03 
 8.7910057985322674e-03  8.9060349433653738e-03  9.0225692293011330e-03  9.1406283509112337e-03 
 9.2602322604682184e-03  9.3814011713174699e-03  9.5041555612933228e-03  9.6285161761798382e-03 
 9.7545040332169281e-03  9.8821404246522953e-03  1.0011446921339876e-02  1.0142445376385378e-02 
 1.0275157928839488e-02  1.0409607007439443e-02  1.0545815334399527e-02  1.0683805929251196e-02 
 1.0823602112733390e-02  1.0965227510733854e-02  1.1108706058281936e-02  1.1254062003593662e-02 
 1.1401319912169753e-02  1.1550504670947244e-02  1.1701641492505443e-02  1.1854755919326915e-02 
 1.2009873828114231e-02  1.2167021434163146e-02  1.2326225295793126e-02  1.2487512318835702e-02 
 1.2650909761181649e-02  1.2816445237387623e-02  1.2984146723343097e-02  1.3154042560998341e-02 
 1.3326161463154287e-02  1.3500532518315072e-02  1.3677185195604014e-02  1.3856149349744037e-02 
 1.4037455226103142e-02  1.4221133465805960e-02  1.4407215110912173e-02  1.4595731609662696e-02 
 1.4786714821794503e-02  1.4980197023925007e-02  1.5176210915006887e-02  1.5374789621854238e-02 
 1.5575966704741168e-02  1.5779776163073512e-02  1.5986252441134805e-02  1.6195430433907476e-02 
 1.6407345492970172e-02  1.6622033432472247e-02  1.6839530535186456e-02  1.7059873558640842e-02 
 1.7283099741330771e-02  1.7509246809012436e-02  1.7738352981078519e-02  1.7970456977017407e-02 
 1.8205598022956838e-02  1.8443815858293227e-02  1.8685150742407737e-02  1.8929643461470181e-02 
 1.9177335335332009e-02  1.9428268224509410e-02  1.9682484537257908e-02  1.9940027236739422e-02 
 2.0200939848283136e-02  2.0465266466741402e-02  2.0733051763941860e-02  2.1004340996237096e-02 
 2.1279180012153058e-02  2.1557615260137601e-02  2.1839693796410296e-02  2.2125463292915169e-02 
 2.2414972045377290e-02  2.2708268981464878e-02  2.3005403669058212e-02  2.3306426324626706e-02 
 2.3611387821715606e-02  2.3920339699543765e-02  2.4233334171713892e-02  2.4550424135036698e-02 
 2.4871663178470706e-02  2.5197105592178842e-02  2.5526806376703605e-02  2.5860821252262300e-02 
 2.6199206668163885e-02  2.6542019812349032e-02  2.6889318621055047e-02  2.7241161788607221e-02 
 2.7597608777338245e-02  2.7958719827637618e-02  2.8324555968132319e-02  2.8695179026000821e-02 
 2.9070651637422014e-02  2.9451037258160898e-02  2.9836400174292729e-02  3.0226805513067532e-02 
 3.0622319253916792e-02  3.1023008239604022e-02  3.1428940187521501e-02  3.1840183701134596e-02 
 3.2256808281575892e-02  3.2678884339391104e-02  3.3106483206438581e-02  3.3539677147944577e-02 
 3.3978539374716246e-02  3.4423144055514492e-02  3.4873566329588497e-02  3.5329882319374666e-02 
 3.5792169143361349e-02  3.6260504929122077e-02  3.6734968826519346e-02  3.7215641021081068e-02 
 3.7702602747552182e-02  3.8195936303623480e-02  3.8695725063840135e-02  3.9202053493692122e-02 
 3.9715007163889225e-02  4.0234672764822586e-02  4.0761138121215616e-02  4.1294492206966571e-02 
 4.1834825160185399e-02  4.2382228298427235e-02  4.2936794134125301e-02  4.3498616390225793e-02 
 4.4067790016027113e-02  4.4644411203226750e-02  4.5228577402177741e-02  4.5820387338358089e-02 
 4.6419941029055577e-02  4.7027339800270927e-02  4.7642686303842149e-02  4.8266084534792912e-02 
 4.8897639848908055e-02  4.9537458980538733e-02  5.0185650060641060e-02  5.0842322635050341e-02 
 5.1507587682994592e-02  5.2181557635850313e-02  5.2864346396143645e-02  5.3556069356800184e-02 
 5.4256843420646649e-02  5.4966787020167787e-02  5.5686020137521559e-02  5.6414664324816684e-02 
 5.7152842724655060e-02  5.7900680090943200e-02  5.8658302809975929e-02  5.9425838921795981e-02 
 6.0203418141833061e-02  6.0991171882826066e-02  6.1789233277032223e-02  6.2597737198726480e-02 
 6.3416820286996009e-02  6.4246620968832199e-02  6.5087279482525295e-02  6.5938937901364958e-02 
 6.6801740157651002e-02  6.7675832067018299e-02  6.8561361353079955e-02  6.9458477672393007e-02 
 7.0367332639750521e-02  7.1288079853805211e-02  7.2220874923027742e-02  7.3165875492004914e-02 
 7.4123241268082105e-02  7.5093134048354077e-02  7.6075717747009150e-02  7.7071158423031041e-02 
 7.8079624308263304e-02  7.9101285835840654e-02  8.0136315668992958e-02  8.1184888730225530e-02 
 8.2247182230881385e-02  8.3323375701090510e-02  8.4413651020110822e-02  8.5518192447066183e-02 
 8.6637186652086667e-02  8.7770822747856317e-02  8.8919292321573334e-02  9.0082789467329200e-02 
 9.1261510818910804e-02  9.2455655583032037e-02  9.3665425573000199e-02  9.4891025242822988e-02 
 9.6132661721761617e-02  9.7390544849336264e-02  9.8664887210789448e-02  9.9955904173013144e-02 
 1.0126381392094681e-01  1.0258883749445079e-01  1.0393119882566268e-01  1.0529112477684242e-01 
 1.0666884517871252e-01  1.0806459286929995e-01  1.0947860373328652e-01  1.1091111674187377e-01 
 1.1236237399316949e-01  1.1383262075310337e-01  1.1532210549687717e-01  1.1683107995095772e-01 
 1.1835979913561924e-01  1.1990852140804246e-01  1.2147750850597752e-01  1.2306702559197832e-01 
 1.2467734129821559e-01  1.2630872777187638e-01  1.2796146072115760e-01  1.2963581946186137e-01 
 1.3133208696460022e-01  1.3305054990261891e-01  1.3479149870024434e-01  1.3655522758196692e-01 
 1.3834203462216549e-01  1.4015222179548265e-01  1.4198609502785906e-01  1.4384396424823587e-01 
 1.4572614344093313e-01  1.4763295069871424e-01  1.4956470827654414e-01  1.5152174264605128e-01 
 1.5350438455070198e-01  1.5551296906169704e-01  1.5754783563459943e-01  1.5960932816670317e-01 
 1.6169779505515272e-01  1.6381358925582298e-01  1.6595706834296994e-01  1.6812859456966048e-01 
 1.7032853492899561e-01  1.7255726121613213e-01  1.7481515009111712e-01  1.7710258314254451e-01 
 1.7941994695204427e-01  1.8176763315961572e-01  1.8414603852981573e-01  1.8655556501881265e-01 
 1.8899661984231805e-01  1.9146961554440706e-01  1.9397497006723927e-01  1.9651310682169201e-01 
 1.9908445475891784e-01  2.0168944844283818e-01  2.0432852812358576e-01  2.0700213981190790e-01 
 2.0971073535454374e-01  2.1245477251058595e-01  2.1523471502884539e-01  2.1805103272622414e-01 
 2.2090420156711615e-01  2.2379470374384638e-01  2.2672302775816239e-01  2.2968966850379227e-01 
 2.3269512735008288e-01  2.3573991222673260e-01  2.3882453770963244e-01  2.4194952510783069e-01 
 2.4511540255163541e-01  2.4832270508186977e-01  2.5157197474029502e-01  2.5486376066121702e-01 
 2.5819861916429121e-01  2.6157711384854176e-01  2.6499981568761211e-01  2.6846730312625838e-01 
 2.7198016217811111e-01  2.7553898652471104e-01  2.7914437761584310e-01  2.8279694477118283e-01 
 2.8649730528327305e-01  2.9024608452184741e-01  2.9404391603951968e-01  2.9789144167885562e-01 
 3.0178931168084577e-01  3.0573818479479764e-01  3.0973872838966637e-01  3.1379161856684107e-01 
 3.1789754027440803e-01  3.2205718742290823e-01  3.2627126300261011e-01  3.3054047920231666e-01 
 3.3486555752972730e-01  3.3924722893337228e-01  3.4368623392614822e-01  3.4818332271046420e-01 
 3.5273925530502825e-01  3.5735480167329231e-01  3.6203074185357825e-01  3.6676786609090556e-01 
 3.7156697497054525e-01  3.7642887955332033e-01  3.8135440151267713e-01  3.8634437327354981e-01 
 3.9139963815304279e-01  3.9652105050295267e-01  4.0170947585415590e-01  4.0696579106288594e-01 
 4.1229088445892359e-01  4.1768565599572699e-01  4.2315101740252664e-01  4.2868789233840693e-01 
 4.3429721654841114e-01  4.3997993802168134e-01  4.4573701715167202e-01  4.5156942689845858e-01 
 4.5747815295316990e-01  4.6346419390457261e-01  4.6952856140783478e-01  4.7567228035549824e-01 
 4.8189638905068788e-01  4.8820193938258705e-01  4.9458999700420975e-01  5.0106164151249810e-01 
 5.0761796663077741e-01  5.1426008039359705e-01  5.2098910533399212e-01  5.2780617867319291e-01 
 5.3471245251282029e-01  5.4170909402958878e-01  5.4879728567256825e-01  5.5597822536301700e-01 
 5.6325312669683414e-01  5.7062321914965997e-01  5.7808974828466053e-01  5.8565397596303070e-01 
 5.9331718055725180e-01  6.0108065716713921e-01  6.0894571783871820e-01  6.1691369178596145e-01 
 6.2498592561543098e-01  6.3316378355385627e-01  6.4144864767869336e-01  6.4984191815169801e-01 
 6.5834501345555696e-01  6.6695937063361455e-01  6.7568644553273838e-01  6.8452771304935500e-01 
 6.9348466737871928e-01  7.0255882226743105e-01  7.1175171126926418e-01  7.2106488800433954e-01 
 7.3049992642169193e-01  7.4005842106527009e-01  7.4974198734341879e-01  7.5955226180188706e-01 
 7.6949090240040774e-01  7.7955958879289688e-01  7.8976002261131917e-01  8.0009392775326815e-01 
 8.1056305067330825e-01  8.2116916067813073e-01  8.3191405022556975e-01  8.4279953522753293e-01 
 8.5382745535689542e-01  8.6499967435840364e-01  8.7631808036366132e-01  8.8778458621022238e-01 
 8.9940112976486619e-01  9.1116967425110185e-01  9.2309220858095797e-01  9.3517074769111297e-01 
 9.4740733288342471e-01  9.5980403216991472e-01  9.7236294062226791e-01  9.8508618072590426e-01 
 9.9797590273868353e-01  1.0110342850543048e+00  1.0242635345704598e+00  1.0376658870618036e+00 
 1.0512436075578058e+00  1.0649989907255468e+00  1.0789343612575231e+00  1.0930520742645180e+00 
 1.1073545156736335e+00  1.1218441026315087e+00  1.1365232839128259e+00  1.1513945403341599e+00 
 1.1664603851732405e+00  1.1817233645937044e+00  1.1971860580754004e+00  1.2128510788503295e+00 
 1.2287210743442873e+00  1.2447987266242844e+00  1.2610867528518224e+00  1.2775879057421007e+00 
 1.2943049740292325e+00  1.3112407829375461e+00  1.3283981946590562e+00  1.3457801088371795e+00 
 1.3633894630567858e+00  1.3812292333406453e+00  1.3993024346523983e+00  1.4176121214060828e+00 
 1.4361613879823392e+00  1.4549533692513672e+00  1.4739912411027285e+00  1.4932782209820783e+00 
 1.5128175684349203e+00  1.5326125856574802e+00  1.5526666180547823e+00  1.5729830548060324e+00 
 1.5935653294373964e+00  1.6144169204022754e+00  1.6355413516691704e+00  1.6569421933172443e+00 
 1.6786230621396716e+00  1.7005876222548857e+00  1.7228395857258270e+00  1.7453827131872779e+00 
 1.7682208144814369e+00  1.7913577493017800e+00  1.8147974278453600e+00  1.8385438114736392e+00 
 1.8626009133819696e+00  1.8869727992778318e+00  1.9116635880679500e+00  1.9366774525543957e+00 
 1.9620186201398029e+00  1.9876913735418076e+00  2.0137000515168393e+00  2.0400490495933776e+00 
 2.0667428208148113e+00  2.0937858764920110e+00  2.1211827869657500e+00  2.1489381823791072e+00 
 2.1770567534599707e+00  2.2055432523137712e+00  2.2344024932266189e+00  2.2636393534789159e+00 
 2.2932587741696309e+00  2.3232657610513594e+00  2.3536653853763023e+00  2.3844627847533246e+00 
 2.4156631640162232e+00  2.4472717961033519e+00  2.4792940229487663e+00  2.5117352563850184e+00 
 2.5446009790577722e+00  2.5778967453523833e+00  2.6116281823326024e+00  2.6458009906915643e+00 
 2.6804209457152148e+00  2.7154938982583521e+00  2.7510257757334382e+00  2.7870225831123259e+00 
 2.8234904039411433e+00  2.8604354013684068e+00  2.8978638191866146e+00  2.9357819828874612e+00 
 2.9741963007308607e+00  3.0131132648279588e+00  3.0525394522383138e+00  3.0924815260814364e+00 
 3.1329462366628720e+00  3.1739404226150185e+00  3.2154710120528724e+00  3.2575450237448953e+00 
 3.3001695682992032e+00  3.3433518493652765e+00  3.3870991648513935e+00  3.4314189081579940e+00 
 3.4763185694271885e+00  3.5218057368085844e+00  3.5678880977417395e+00  3.6145734402553313e+00 
 3.6618696542833611e+00  3.7097847329985685e+00  3.7583267741633000e+00  3.8075039814980456e+00 
 3.8573246660678926e+00  3.9077972476871103e+00  3.9589302563421236e+00  4.0107323336330944e+00 
 4.0632122342343813e+00  4.1163788273740911e+00  4.1702410983330074e+00  4.2248081499631196e+00 
 4.2800892042260275e+00  4.3360936037514763e+00  4.3928308134162881e+00  4.4503104219439225e+00 
 4.5085421435250348e+00  4.5675358194591684e+00  4.6273014198179689e+00  4.6878490451301431e+00 
 4.7491889280884783e+00  4.8113314352791905e+00  4.8742870689338975e+00  4.9380664687045295e+00 
 5.0026804134614498e+00  5.0681398231151080e+00  5.1344557604615346e+00  5.2016394330519811e+00 
 5.2697021950870191e+00  5.3386555493354280e+00  5.4085111490781896e+00  5.4792808000779276e+00 
 5.5509764625741047e+00  5.6236102533043084e+00  5.6971944475520582e+00  5.7717414812213175e+00 
 5.8472639529382064e+00  5.9237746261801956e+00  6.0012864314331660e+00  6.0798124683766899e+00 
 6.1593660080979129e+00  6.2399604953343912e+00  6.3216095507462891e+00  6.4043269732183061e+00 
 6.4881267421917164e+00  6.5730230200269242e+00  6.6590301543969490e+00  6.7461626807122013e+00 
 6.8344353245770142e+00  6.9238630042782976e+00  7.0144608333067806e+00  7.1062441229111766e+00 
 7.1992283846858909e+00  7.2934293331924787e+00  7.3888628886154430e+00  7.4855451794527914e+00 
 7.5834925452417892e+00  7.6827215393203785e+00  7.7832489316247342e+00  7.8850917115234198e+00 
 7.9882670906886331e+00  8.0927925060050221e+00  8.1986856225165550e+00  8.3059643364119573e+00 
 8.4146467780492120e+00  8.5247513150196301e+00  8.6362965552520201e+00  8.7493013501574683e+00 
 8.8637847978152937e+00  8.9797662462005992e+00  9.0972652964542231e+00  9.2163018061953199e+00 
 9.3368958928773544e+00  9.4590679371880011e+00  9.5828385864935282e+00  9.7082287583282572e+00 
 9.8352596439296658e+00  9.9639527118197684e+00  1.0094329711433341e+01  1.0226412676793625e+01 
 1.0360223930236140e+01  1.0495786086181200e+01  1.0633122054955809e+01  1.0772255046665567e+01 
 1.0913208575117221e+01  1.1056006461792560e+01  1.1200672839874327e+01  1.1347232158324697e+01 
 1.1495709186017336e+01  1.1646129015923311e+01  1.1798517069351892e+01  1.1952899100246805e+01 
 1.2109301199538715e+01  1.2267749799554656e+01  1.2428271678485151e+01  1.2590893964909801e+01 
 1.2755644142382067e+01  1.2922550054074062e+01  1.3091639907482115e+01  1.3262942279193902e+01 
 1.3436486119717957e+01  1.3612300758376382e+01  1.3790415908261565e+01  1.3970861671257767e+01 
 1.4153668543128441e+01  1.4338867418669979e+01  1.4526489596933162e+01  1.4716566786512681e+01 
 1.4909131110905971e+01  1.5104215113942177e+01  1.5301851765282134e+01  1.5502074465990310e+01 
 1.5704917054179676e+01  1.5910413810730420e+01  1.6118599465083502e+01  1.6329509201110010e+01 
 1.6543178663057315e+01  1.6759643961573044e+01  1.6978941679807853e+01  1.7201108879598070e+01 
 1.7426183107729248e+01  1.7654202402281630e+01  1.7885205299058736e+01  1.8119230838099874e+01 
 1.8356318570278173e+01  1.8596508563984663e+01  1.8839841411899954e+01  1.9086358237854505e+01 
 1.9336100703778630e+01  1.9589111016743484e+01  1.9845431936094148e+01  2.0105106780676060e+01 
 2.0368179436156002e+01  2.0634694362438893e+01  2.0904696601181605e+01  2.1178231783405117e+01 
 2.1455346137206266e+01  2.1736086495570401e+01  2.2020500304286280e+01  2.2308635629964499e+01 
 2.2600541168160934e+01  2.2896266251606225e+01  2.3195860858543366e+01  2.3499375621173989e+01 
 2.3806861834215386e+01  2.4118371463569392e+01  2.4433957155104800e+01  2.4753672243554604e+01 
 2.5077570761529703e+01  2.5405707448650549e+01  2.5738137760798253e+01  2.6074917879486787e+01 
 2.6416104721357787e+01  2.6761755947799578e+01  2.7111929974692117e+01  2.7466685982279394e+01 
 2.7826083925171048e+01  2.8190184542474878e+01  2.8559049368061700e+01  2.8932740740965027e+01 
 2.9311321815916298e+01  2.9694856574018242e+01  3.0083409833557823e+01  3.0477047260960699e+01 
 3.0875835381889004e+01  3.1279841592484324e+01  3.1689134170757818e+01  3.2103782288129381e+01 
 3.2523856021117737e+01  3.2949426363183591e+01  3.3380565236727641e+01  3.3817345505245676e+01 
 3.4259840985642647e+01  3.4708126460707938e+01  3.5162277691753779e+01  3.5622371431419211e+01 
 3.6088485436641186e+01  3.6560698481796031e+01  3.7039090372012311e+01  3.7523741956658071e+01 
 3.8014735143004643e+01  3.8512152910069133e+01  3.9016079322638070e+01  3.9526599545474582e+01 
 4.0043799857711406e+01  4.0567767667432300e+01  4.1098591526444196e+01  4.1636361145242695e+01 
 4.2181167408173302e+01  4.2733102388791153e+01  4.3292259365421621e+01  4.3858732836924617e+01 
 4.4432618538665075e+01  4.5014013458692581e+01  4.5603015854132238e+01  4.6199725267790825e+01 
 4.6804242544979488e+01  4.7416669850556879e+01  4.8037110686195270e+01  4.8665669907872598e+01 
 4.9302453743593368e+01  4.9947569811341403e+01  5.0601127137267611e+01  5.1263236174115590e+01 
 5.1934008819888454e+01  5.2613558436759853e+01  5.3301999870232414e+01  5.3999449468546970e+01 
 5.4706025102345620e+01  5.5421846184592198e+01  5.6147033690753325e+01  5.6881710179243662e+01 
 5.7625999812138168e+01  5.8380028376156375e+01  5.9143923303920268e+01  5.9917813695490786e+01 
 6.0701830340186028e+01  6.1496105738685003e+01  6.2300774125420489e+01  6.3115971491265036e+01 
 6.3941835606513735e+01  6.4778506044167685e+01  6.5626124203522210e+01  6.6484833334063651e+01 
 6.7354778559678877e+01  6.8236106903181593e+01  6.9128967311159471e+01  7.0033510679146573e+01 
 7.0949889877124974e+01  7.1878259775360348e+01  7.2818777270574827e+01  7.3771601312463773e+01 
 7.4736892930558085e+01  7.5714815261438687e+01  7.6705533576307062e+01  7.7709215308916427e+01 
 7.8726030083868423e+01  7.9756149745280183e+01  8.0799748385826248e+01  8.1857002376160736e+01 
 8.2928090394724364e+01  8.4013193457941597e+01  8.5112494950812746e+01  8.6226180657906539e+01 
 8.7354438794758181e+01  8.8497460039678145e+01  8.9655437565977337e+01  9.0828567074613957e+01 
 9.2017046827266796e+01  9.3221077679842921e+01  9.4440863116422136e+01  9.5676609283646386e+01 
 9.6928525025559182e+01  9.8196821918900568e+01  9.9481714308864170e+01  1.0078341934532206e+02 
 1.0210215701952362e+02  1.0343815020127450e+02  1.0479162467660217e+02  1.0616280918591440e+02 
 1.0755193546265681e+02  1.0895923827247643e+02  1.1038495545289761e+02  1.1182932795351721e+02 
 1.1329259987672556e+02  1.1477501851896065e+02  1.1627683441250086e+02  1.1779830136780693e+02 
  </PP_R>
  <PP_RAB>